ITEM: TIMESTEP
0
ITEM: NUMBER OF ATOMS
1500
ITEM: BOX BOUNDS pp pp pp
-14.99448915 14.99448915
-14.99448915 14.99448915
-11.96368645 11.96368645
ITEM: ATOMS type x y z stdvq molarfraction chemicalmultp thermalmultp chemicalmultpbcc thermalmultpbcc
1 -12.9468832164 -14.0431972536 -9.57094916 0.01 1.0 1.0 38.6817305917 0.0 0.0
1 -11.0442994236 -14.0431972536 -11.96368645 0.01 1.0 1.0 38.6817305917 0.0 0.0
1 -12.9468832164 -9.9479853864 -11.96368645 0.01 1.0 1.0 38.6817305917 0.0 0.0
1 -11.0442994236 -9.9479853864 -9.57094916 0.01 1.0 1.0 38.6817305917 0.0 0.0
1 -9.9479853864 -11.0442994236 -11.96368645 0.01 1.0 1.0 38.6817305917 0.0 0.0
1 -14.0431972536 -11.0442994236 -9.57094916 0.01 1.0 1.0 38.6817305917 0.0 0.0
1 -9.9479853864 -12.9468832164 -9.57094916 0.01 1.0 1.0 38.6817305917 0.0 0.0
1 -14.0431972536 -12.9468832164 -11.96368645 0.01 1.0 1.0 38.6817305917 0.0 0.0
2 -14.99448915 -14.99448915 -10.767317805 0.01 0.0 1.0 38.6817305917 0.0 0.0
2 -14.99448915 -14.99448915 -8.374580515 0.01 0.0 1.0 38.6817305917 0.0 0.0
2 -11.99559132 -11.99559132 -8.374580515 0.01 0.0 1.0 38.6817305917 0.0 0.0
2 -11.99559132 -11.99559132 -10.767317805 0.01 0.0 1.0 38.6817305917 0.0 0.0
1 -12.9468832164 -14.0431972536 -4.78547458 0.01 1.0 1.0 38.6817305917 0.0 0.0
1 -11.0442994236 -14.0431972536 -7.17821187 0.01 1.0 1.0 38.6817305917 0.0 0.0
1 -12.9468832164 -9.9479853864 -7.17821187 0.01 1.0 1.0 38.6817305917 0.0 0.0
1 -11.0442994236 -9.9479853864 -4.78547458 0.01 1.0 1.0 38.6817305917 0.0 0.0
1 -9.9479853864 -11.0442994236 -7.17821187 0.01 1.0 1.0 38.6817305917 0.0 0.0
1 -14.0431972536 -11.0442994236 -4.78547458 0.01 1.0 1.0 38.6817305917 0.0 0.0
1 -9.9479853864 -12.9468832164 -4.78547458 0.01 1.0 1.0 38.6817305917 0.0 0.0
1 -14.0431972536 -12.9468832164 -7.17821187 0.01 1.0 1.0 38.6817305917 0.0 0.0
2 -14.99448915 -14.99448915 -5.981843225 0.01 0.0 1.0 38.6817305917 0.0 0.0
2 -14.99448915 -14.99448915 -3.589105935 0.01 0.0 1.0 38.6817305917 0.0 0.0
2 -11.99559132 -11.99559132 -3.589105935 0.01 0.0 1.0 38.6817305917 0.0 0.0
2 -11.99559132 -11.99559132 -5.981843225 0.01 0.0 1.0 38.6817305917 0.0 0.0
1 -12.9468832164 -14.0431972536 0.0 0.01 1.0 1.0 38.6817305917 0.0 0.0
1 -11.0442994236 -14.0431972536 -2.39273729 0.01 1.0 1.0 38.6817305917 0.0 0.0
1 -12.9468832164 -9.9479853864 -2.39273729 0.01 1.0 1.0 38.6817305917 0.0 0.0
1 -11.0442994236 -9.9479853864 0.0 0.01 1.0 1.0 38.6817305917 0.0 0.0
1 -9.9479853864 -11.0442994236 -2.39273729 0.01 1.0 1.0 38.6817305917 0.0 0.0
1 -14.0431972536 -11.0442994236 0.0 0.01 1.0 1.0 38.6817305917 0.0 0.0
1 -9.9479853864 -12.9468832164 0.0 0.01 1.0 1.0 38.6817305917 0.0 0.0
1 -14.0431972536 -12.9468832164 -2.39273729 0.01 1.0 1.0 38.6817305917 0.0 0.0
2 -14.99448915 -14.99448915 -1.196368645 0.01 0.0 1.0 38.6817305917 0.0 0.0
2 -14.99448915 -14.99448915 1.196368645 0.01 0.0 1.0 38.6817305917 0.0 0.0
2 -11.99559132 -11.99559132 1.196368645 0.01 0.0 1.0 38.6817305917 0.0 0.0
2 -11.99559132 -11.99559132 -1.196368645 0.01 0.0 1.0 38.6817305917 0.0 0.0
1 -12.9468832164 -14.0431972536 4.78547458 0.01 1.0 1.0 38.6817305917 0.0 0.0
1 -11.0442994236 -14.0431972536 2.39273729 0.01 1.0 1.0 38.6817305917 0.0 0.0
1 -12.9468832164 -9.9479853864 2.39273729 0.01 1.0 1.0 38.6817305917 0.0 0.0
1 -11.0442994236 -9.9479853864 4.78547458 0.01 1.0 1.0 38.6817305917 0.0 0.0
1 -9.9479853864 -11.0442994236 2.39273729 0.01 1.0 1.0 38.6817305917 0.0 0.0
1 -14.0431972536 -11.0442994236 4.78547458 0.01 1.0 1.0 38.6817305917 0.0 0.0
1 -9.9479853864 -12.9468832164 4.78547458 0.01 1.0 1.0 38.6817305917 0.0 0.0
1 -14.0431972536 -12.9468832164 2.39273729 0.01 1.0 1.0 38.6817305917 0.0 0.0
2 -14.99448915 -14.99448915 3.589105935 0.01 0.0 1.0 38.6817305917 0.0 0.0
2 -14.99448915 -14.99448915 5.981843225 0.01 0.0 1.0 38.6817305917 0.0 0.0
2 -11.99559132 -11.99559132 5.981843225 0.01 0.0 1.0 38.6817305917 0.0 0.0
2 -11.99559132 -11.99559132 3.589105935 0.01 0.0 1.0 38.6817305917 0.0 0.0
1 -12.9468832164 -14.0431972536 9.57094916 0.01 1.0 1.0 38.6817305917 0.0 0.0
1 -11.0442994236 -14.0431972536 7.17821187 0.01 1.0 1.0 38.6817305917 0.0 0.0
1 -12.9468832164 -9.9479853864 7.17821187 0.01 1.0 1.0 38.6817305917 0.0 0.0
1 -11.0442994236 -9.9479853864 9.57094916 0.01 1.0 1.0 38.6817305917 0.0 0.0
1 -9.9479853864 -11.0442994236 7.17821187 0.01 1.0 1.0 38.6817305917 0.0 0.0
1 -14.0431972536 -11.0442994236 9.57094916 0.01 1.0 1.0 38.6817305917 0.0 0.0
1 -9.9479853864 -12.9468832164 9.57094916 0.01 1.0 1.0 38.6817305917 0.0 0.0
1 -14.0431972536 -12.9468832164 7.17821187 0.01 1.0 1.0 38.6817305917 0.0 0.0
2 -14.99448915 -14.99448915 8.374580515 0.01 0.0 1.0 38.6817305917 0.0 0.0
2 -14.99448915 -14.99448915 10.767317805 0.01 0.0 1.0 38.6817305917 0.0 0.0
2 -11.99559132 -11.99559132 10.767317805 0.01 0.0 1.0 38.6817305917 0.0 0.0
2 -11.99559132 -11.99559132 8.374580515 0.01 0.0 1.0 38.6817305917 0.0 0.0
1 -12.9468832164 -8.0454015936 -9.57094916 0.01 1.0 1.0 38.6817305917 0.0 0.0
1 -11.0442994236 -8.0454015936 -11.96368645 0.01 1.0 1.0 38.6817305917 0.0 0.0
1 -12.9468832164 -3.9501897264 -11.96368645 0.01 1.0 1.0 38.6817305917 0.0 0.0
1 -11.0442994236 -3.9501897264 -9.57094916 0.01 1.0 1.0 38.6817305917 0.0 0.0
1 -9.9479853864 -5.0465037636 -11.96368645 0.01 1.0 1.0 38.6817305917 0.0 0.0
1 -14.0431972536 -5.0465037636 -9.57094916 0.01 1.0 1.0 38.6817305917 0.0 0.0
1 -9.9479853864 -6.9490875564 -9.57094916 0.01 1.0 1.0 38.6817305917 0.0 0.0
1 -14.0431972536 -6.9490875564 -11.96368645 0.01 1.0 1.0 38.6817305917 0.0 0.0
2 -14.99448915 -8.99669349 -10.767317805 0.01 0.0 1.0 38.6817305917 0.0 0.0
2 -14.99448915 -8.99669349 -8.374580515 0.01 0.0 1.0 38.6817305917 0.0 0.0
2 -11.99559132 -5.99779566 -8.374580515 0.01 0.0 1.0 38.6817305917 0.0 0.0
2 -11.99559132 -5.99779566 -10.767317805 0.01 0.0 1.0 38.6817305917 0.0 0.0
1 -12.9468832164 -8.0454015936 -4.78547458 0.01 1.0 1.0 38.6817305917 0.0 0.0
1 -11.0442994236 -8.0454015936 -7.17821187 0.01 1.0 1.0 38.6817305917 0.0 0.0
1 -12.9468832164 -3.9501897264 -7.17821187 0.01 1.0 1.0 38.6817305917 0.0 0.0
1 -11.0442994236 -3.9501897264 -4.78547458 0.01 1.0 1.0 38.6817305917 0.0 0.0
1 -9.9479853864 -5.0465037636 -7.17821187 0.01 1.0 1.0 38.6817305917 0.0 0.0
1 -14.0431972536 -5.0465037636 -4.78547458 0.01 1.0 1.0 38.6817305917 0.0 0.0
1 -9.9479853864 -6.9490875564 -4.78547458 0.01 1.0 1.0 38.6817305917 0.0 0.0
1 -14.0431972536 -6.9490875564 -7.17821187 0.01 1.0 1.0 38.6817305917 0.0 0.0
2 -14.99448915 -8.99669349 -5.981843225 0.01 0.0 1.0 38.6817305917 0.0 0.0
2 -14.99448915 -8.99669349 -3.589105935 0.01 0.0 1.0 38.6817305917 0.0 0.0
2 -11.99559132 -5.99779566 -3.589105935 0.01 0.0 1.0 38.6817305917 0.0 0.0
2 -11.99559132 -5.99779566 -5.981843225 0.01 0.0 1.0 38.6817305917 0.0 0.0
1 -12.9468832164 -8.0454015936 0.0 0.01 1.0 1.0 38.6817305917 0.0 0.0
1 -11.0442994236 -8.0454015936 -2.39273729 0.01 1.0 1.0 38.6817305917 0.0 0.0
1 -12.9468832164 -3.9501897264 -2.39273729 0.01 1.0 1.0 38.6817305917 0.0 0.0
1 -11.0442994236 -3.9501897264 0.0 0.01 1.0 1.0 38.6817305917 0.0 0.0
1 -9.9479853864 -5.0465037636 -2.39273729 0.01 1.0 1.0 38.6817305917 0.0 0.0
1 -14.0431972536 -5.0465037636 0.0 0.01 1.0 1.0 38.6817305917 0.0 0.0
1 -9.9479853864 -6.9490875564 0.0 0.01 1.0 1.0 38.6817305917 0.0 0.0
1 -14.0431972536 -6.9490875564 -2.39273729 0.01 1.0 1.0 38.6817305917 0.0 0.0
2 -14.99448915 -8.99669349 -1.196368645 0.01 0.0 1.0 38.6817305917 0.0 0.0
2 -14.99448915 -8.99669349 1.196368645 0.01 0.0 1.0 38.6817305917 0.0 0.0
2 -11.99559132 -5.99779566 1.196368645 0.01 0.0 1.0 38.6817305917 0.0 0.0
2 -11.99559132 -5.99779566 -1.196368645 0.01 0.0 1.0 38.6817305917 0.0 0.0
1 -12.9468832164 -8.0454015936 4.78547458 0.01 1.0 1.0 38.6817305917 0.0 0.0
1 -11.0442994236 -8.0454015936 2.39273729 0.01 1.0 1.0 38.6817305917 0.0 0.0
1 -12.9468832164 -3.9501897264 2.39273729 0.01 1.0 1.0 38.6817305917 0.0 0.0
1 -11.0442994236 -3.9501897264 4.78547458 0.01 1.0 1.0 38.6817305917 0.0 0.0
1 -9.9479853864 -5.0465037636 2.39273729 0.01 1.0 1.0 38.6817305917 0.0 0.0
1 -14.0431972536 -5.0465037636 4.78547458 0.01 1.0 1.0 38.6817305917 0.0 0.0
1 -9.9479853864 -6.9490875564 4.78547458 0.01 1.0 1.0 38.6817305917 0.0 0.0
1 -14.0431972536 -6.9490875564 2.39273729 0.01 1.0 1.0 38.6817305917 0.0 0.0
2 -14.99448915 -8.99669349 3.589105935 0.01 0.0 1.0 38.6817305917 0.0 0.0
2 -14.99448915 -8.99669349 5.981843225 0.01 0.0 1.0 38.6817305917 0.0 0.0
2 -11.99559132 -5.99779566 5.981843225 0.01 0.0 1.0 38.6817305917 0.0 0.0
2 -11.99559132 -5.99779566 3.589105935 0.01 0.0 1.0 38.6817305917 0.0 0.0
1 -12.9468832164 -8.0454015936 9.57094916 0.01 1.0 1.0 38.6817305917 0.0 0.0
1 -11.0442994236 -8.0454015936 7.17821187 0.01 1.0 1.0 38.6817305917 0.0 0.0
1 -12.9468832164 -3.9501897264 7.17821187 0.01 1.0 1.0 38.6817305917 0.0 0.0
1 -11.0442994236 -3.9501897264 9.57094916 0.01 1.0 1.0 38.6817305917 0.0 0.0
1 -9.9479853864 -5.0465037636 7.17821187 0.01 1.0 1.0 38.6817305917 0.0 0.0
1 -14.0431972536 -5.0465037636 9.57094916 0.01 1.0 1.0 38.6817305917 0.0 0.0
1 -9.9479853864 -6.9490875564 9.57094916 0.01 1.0 1.0 38.6817305917 0.0 0.0
1 -14.0431972536 -6.9490875564 7.17821187 0.01 1.0 1.0 38.6817305917 0.0 0.0
2 -14.99448915 -8.99669349 8.374580515 0.01 0.0 1.0 38.6817305917 0.0 0.0
2 -14.99448915 -8.99669349 10.767317805 0.01 0.0 1.0 38.6817305917 0.0 0.0
2 -11.99559132 -5.99779566 10.767317805 0.01 0.0 1.0 38.6817305917 0.0 0.0
2 -11.99559132 -5.99779566 8.374580515 0.01 0.0 1.0 38.6817305917 0.0 0.0
1 -12.9468832164 -2.0476059336 -9.57094916 0.01 1.0 1.0 38.6817305917 0.0 0.0
1 -11.0442994236 -2.0476059336 -11.96368645 0.01 1.0 1.0 38.6817305917 0.0 0.0
1 -12.9468832164 2.0476059336 -11.96368645 0.01 1.0 1.0 38.6817305917 0.0 0.0
1 -11.0442994236 2.0476059336 -9.57094916 0.01 1.0 1.0 38.6817305917 0.0 0.0
1 -9.9479853864 0.9512918964 -11.96368645 0.01 1.0 1.0 38.6817305917 0.0 0.0
1 -14.0431972536 0.9512918964 -9.57094916 0.01 1.0 1.0 38.6817305917 0.0 0.0
1 -9.9479853864 -0.9512918964 -9.57094916 0.01 1.0 1.0 38.6817305917 0.0 0.0
1 -14.0431972536 -0.9512918964 -11.96368645 0.01 1.0 1.0 38.6817305917 0.0 0.0
2 -14.99448915 -2.99889783 -10.767317805 0.01 0.0 1.0 38.6817305917 0.0 0.0
2 -14.99448915 -2.99889783 -8.374580515 0.01 0.0 1.0 38.6817305917 0.0 0.0
2 -11.99559132 0.0 -8.374580515 0.01 0.0 1.0 38.6817305917 0.0 0.0
2 -11.99559132 0.0 -10.767317805 0.01 0.0 1.0 38.6817305917 0.0 0.0
1 -12.9468832164 -2.0476059336 -4.78547458 0.01 1.0 1.0 38.6817305917 0.0 0.0
1 -11.0442994236 -2.0476059336 -7.17821187 0.01 1.0 1.0 38.6817305917 0.0 0.0
1 -12.9468832164 2.0476059336 -7.17821187 0.01 1.0 1.0 38.6817305917 0.0 0.0
1 -11.0442994236 2.0476059336 -4.78547458 0.01 1.0 1.0 38.6817305917 0.0 0.0
1 -9.9479853864 0.9512918964 -7.17821187 0.01 1.0 1.0 38.6817305917 0.0 0.0
1 -14.0431972536 0.9512918964 -4.78547458 0.01 1.0 1.0 38.6817305917 0.0 0.0
1 -9.9479853864 -0.9512918964 -4.78547458 0.01 1.0 1.0 38.6817305917 0.0 0.0
1 -14.0431972536 -0.9512918964 -7.17821187 0.01 1.0 1.0 38.6817305917 0.0 0.0
2 -14.99448915 -2.99889783 -5.981843225 0.01 0.0 1.0 38.6817305917 0.0 0.0
2 -14.99448915 -2.99889783 -3.589105935 0.01 0.0 1.0 38.6817305917 0.0 0.0
2 -11.99559132 0.0 -3.589105935 0.01 0.0 1.0 38.6817305917 0.0 0.0
2 -11.99559132 0.0 -5.981843225 0.01 0.0 1.0 38.6817305917 0.0 0.0
1 -12.9468832164 -2.0476059336 0.0 0.01 1.0 1.0 38.6817305917 0.0 0.0
1 -11.0442994236 -2.0476059336 -2.39273729 0.01 1.0 1.0 38.6817305917 0.0 0.0
1 -12.9468832164 2.0476059336 -2.39273729 0.01 1.0 1.0 38.6817305917 0.0 0.0
1 -11.0442994236 2.0476059336 0.0 0.01 1.0 1.0 38.6817305917 0.0 0.0
1 -9.9479853864 0.9512918964 -2.39273729 0.01 1.0 1.0 38.6817305917 0.0 0.0
1 -14.0431972536 0.9512918964 0.0 0.01 1.0 1.0 38.6817305917 0.0 0.0
1 -9.9479853864 -0.9512918964 0.0 0.01 1.0 1.0 38.6817305917 0.0 0.0
1 -14.0431972536 -0.9512918964 -2.39273729 0.01 1.0 1.0 38.6817305917 0.0 0.0
2 -14.99448915 -2.99889783 -1.196368645 0.01 0.0 1.0 38.6817305917 0.0 0.0
2 -14.99448915 -2.99889783 1.196368645 0.01 0.0 1.0 38.6817305917 0.0 0.0
2 -11.99559132 0.0 1.196368645 0.01 0.0 1.0 38.6817305917 0.0 0.0
2 -11.99559132 0.0 -1.196368645 0.01 0.0 1.0 38.6817305917 0.0 0.0
1 -12.9468832164 -2.0476059336 4.78547458 0.01 1.0 1.0 38.6817305917 0.0 0.0
1 -11.0442994236 -2.0476059336 2.39273729 0.01 1.0 1.0 38.6817305917 0.0 0.0
1 -12.9468832164 2.0476059336 2.39273729 0.01 1.0 1.0 38.6817305917 0.0 0.0
1 -11.0442994236 2.0476059336 4.78547458 0.01 1.0 1.0 38.6817305917 0.0 0.0
1 -9.9479853864 0.9512918964 2.39273729 0.01 1.0 1.0 38.6817305917 0.0 0.0
1 -14.0431972536 0.9512918964 4.78547458 0.01 1.0 1.0 38.6817305917 0.0 0.0
1 -9.9479853864 -0.9512918964 4.78547458 0.01 1.0 1.0 38.6817305917 0.0 0.0
1 -14.0431972536 -0.9512918964 2.39273729 0.01 1.0 1.0 38.6817305917 0.0 0.0
2 -14.99448915 -2.99889783 3.589105935 0.01 0.0 1.0 38.6817305917 0.0 0.0
2 -14.99448915 -2.99889783 5.981843225 0.01 0.0 1.0 38.6817305917 0.0 0.0
2 -11.99559132 0.0 5.981843225 0.01 0.0 1.0 38.6817305917 0.0 0.0
2 -11.99559132 0.0 3.589105935 0.01 0.0 1.0 38.6817305917 0.0 0.0
1 -12.9468832164 -2.0476059336 9.57094916 0.01 1.0 1.0 38.6817305917 0.0 0.0
1 -11.0442994236 -2.0476059336 7.17821187 0.01 1.0 1.0 38.6817305917 0.0 0.0
1 -12.9468832164 2.0476059336 7.17821187 0.01 1.0 1.0 38.6817305917 0.0 0.0
1 -11.0442994236 2.0476059336 9.57094916 0.01 1.0 1.0 38.6817305917 0.0 0.0
1 -9.9479853864 0.9512918964 7.17821187 0.01 1.0 1.0 38.6817305917 0.0 0.0
1 -14.0431972536 0.9512918964 9.57094916 0.01 1.0 1.0 38.6817305917 0.0 0.0
1 -9.9479853864 -0.9512918964 9.57094916 0.01 1.0 1.0 38.6817305917 0.0 0.0
1 -14.0431972536 -0.9512918964 7.17821187 0.01 1.0 1.0 38.6817305917 0.0 0.0
2 -14.99448915 -2.99889783 8.374580515 0.01 0.0 1.0 38.6817305917 0.0 0.0
2 -14.99448915 -2.99889783 10.767317805 0.01 0.0 1.0 38.6817305917 0.0 0.0
2 -11.99559132 0.0 10.767317805 0.01 0.0 1.0 38.6817305917 0.0 0.0
2 -11.99559132 0.0 8.374580515 0.01 0.0 1.0 38.6817305917 0.0 0.0
1 -12.9468832164 3.9501897264 -9.57094916 0.01 1.0 1.0 38.6817305917 0.0 0.0
1 -11.0442994236 3.9501897264 -11.96368645 0.01 1.0 1.0 38.6817305917 0.0 0.0
1 -12.9468832164 8.0454015936 -11.96368645 0.01 1.0 1.0 38.6817305917 0.0 0.0
1 -11.0442994236 8.0454015936 -9.57094916 0.01 1.0 1.0 38.6817305917 0.0 0.0
1 -9.9479853864 6.9490875564 -11.96368645 0.01 1.0 1.0 38.6817305917 0.0 0.0
1 -14.0431972536 6.9490875564 -9.57094916 0.01 1.0 1.0 38.6817305917 0.0 0.0
1 -9.9479853864 5.0465037636 -9.57094916 0.01 1.0 1.0 38.6817305917 0.0 0.0
1 -14.0431972536 5.0465037636 -11.96368645 0.01 1.0 1.0 38.6817305917 0.0 0.0
2 -14.99448915 2.99889783 -10.767317805 0.01 0.0 1.0 38.6817305917 0.0 0.0
2 -14.99448915 2.99889783 -8.374580515 0.01 0.0 1.0 38.6817305917 0.0 0.0
2 -11.99559132 5.99779566 -8.374580515 0.01 0.0 1.0 38.6817305917 0.0 0.0
2 -11.99559132 5.99779566 -10.767317805 0.01 0.0 1.0 38.6817305917 0.0 0.0
1 -12.9468832164 3.9501897264 -4.78547458 0.01 1.0 1.0 38.6817305917 0.0 0.0
1 -11.0442994236 3.9501897264 -7.17821187 0.01 1.0 1.0 38.6817305917 0.0 0.0
1 -12.9468832164 8.0454015936 -7.17821187 0.01 1.0 1.0 38.6817305917 0.0 0.0
1 -11.0442994236 8.0454015936 -4.78547458 0.01 1.0 1.0 38.6817305917 0.0 0.0
1 -9.9479853864 6.9490875564 -7.17821187 0.01 1.0 1.0 38.6817305917 0.0 0.0
1 -14.0431972536 6.9490875564 -4.78547458 0.01 1.0 1.0 38.6817305917 0.0 0.0
1 -9.9479853864 5.0465037636 -4.78547458 0.01 1.0 1.0 38.6817305917 0.0 0.0
1 -14.0431972536 5.0465037636 -7.17821187 0.01 1.0 1.0 38.6817305917 0.0 0.0
2 -14.99448915 2.99889783 -5.981843225 0.01 0.0 1.0 38.6817305917 0.0 0.0
2 -14.99448915 2.99889783 -3.589105935 0.01 0.0 1.0 38.6817305917 0.0 0.0
2 -11.99559132 5.99779566 -3.589105935 0.01 0.0 1.0 38.6817305917 0.0 0.0
2 -11.99559132 5.99779566 -5.981843225 0.01 0.0 1.0 38.6817305917 0.0 0.0
1 -12.9468832164 3.9501897264 0.0 0.01 1.0 1.0 38.6817305917 0.0 0.0
1 -11.0442994236 3.9501897264 -2.39273729 0.01 1.0 1.0 38.6817305917 0.0 0.0
1 -12.9468832164 8.0454015936 -2.39273729 0.01 1.0 1.0 38.6817305917 0.0 0.0
1 -11.0442994236 8.0454015936 0.0 0.01 1.0 1.0 38.6817305917 0.0 0.0
1 -9.9479853864 6.9490875564 -2.39273729 0.01 1.0 1.0 38.6817305917 0.0 0.0
1 -14.0431972536 6.9490875564 0.0 0.01 1.0 1.0 38.6817305917 0.0 0.0
1 -9.9479853864 5.0465037636 0.0 0.01 1.0 1.0 38.6817305917 0.0 0.0
1 -14.0431972536 5.0465037636 -2.39273729 0.01 1.0 1.0 38.6817305917 0.0 0.0
2 -14.99448915 2.99889783 -1.196368645 0.01 0.0 1.0 38.6817305917 0.0 0.0
2 -14.99448915 2.99889783 1.196368645 0.01 0.0 1.0 38.6817305917 0.0 0.0
2 -11.99559132 5.99779566 1.196368645 0.01 0.0 1.0 38.6817305917 0.0 0.0
2 -11.99559132 5.99779566 -1.196368645 0.01 0.0 1.0 38.6817305917 0.0 0.0
1 -12.9468832164 3.9501897264 4.78547458 0.01 1.0 1.0 38.6817305917 0.0 0.0
1 -11.0442994236 3.9501897264 2.39273729 0.01 1.0 1.0 38.6817305917 0.0 0.0
1 -12.9468832164 8.0454015936 2.39273729 0.01 1.0 1.0 38.6817305917 0.0 0.0
1 -11.0442994236 8.0454015936 4.78547458 0.01 1.0 1.0 38.6817305917 0.0 0.0
1 -9.9479853864 6.9490875564 2.39273729 0.01 1.0 1.0 38.6817305917 0.0 0.0
1 -14.0431972536 6.9490875564 4.78547458 0.01 1.0 1.0 38.6817305917 0.0 0.0
1 -9.9479853864 5.0465037636 4.78547458 0.01 1.0 1.0 38.6817305917 0.0 0.0
1 -14.0431972536 5.0465037636 2.39273729 0.01 1.0 1.0 38.6817305917 0.0 0.0
2 -14.99448915 2.99889783 3.589105935 0.01 0.0 1.0 38.6817305917 0.0 0.0
2 -14.99448915 2.99889783 5.981843225 0.01 0.0 1.0 38.6817305917 0.0 0.0
2 -11.99559132 5.99779566 5.981843225 0.01 0.0 1.0 38.6817305917 0.0 0.0
2 -11.99559132 5.99779566 3.589105935 0.01 0.0 1.0 38.6817305917 0.0 0.0
1 -12.9468832164 3.9501897264 9.57094916 0.01 1.0 1.0 38.6817305917 0.0 0.0
1 -11.0442994236 3.9501897264 7.17821187 0.01 1.0 1.0 38.6817305917 0.0 0.0
1 -12.9468832164 8.0454015936 7.17821187 0.01 1.0 1.0 38.6817305917 0.0 0.0
1 -11.0442994236 8.0454015936 9.57094916 0.01 1.0 1.0 38.6817305917 0.0 0.0
1 -9.9479853864 6.9490875564 7.17821187 0.01 1.0 1.0 38.6817305917 0.0 0.0
1 -14.0431972536 6.9490875564 9.57094916 0.01 1.0 1.0 38.6817305917 0.0 0.0
1 -9.9479853864 5.0465037636 9.57094916 0.01 1.0 1.0 38.6817305917 0.0 0.0
1 -14.0431972536 5.0465037636 7.17821187 0.01 1.0 1.0 38.6817305917 0.0 0.0
2 -14.99448915 2.99889783 8.374580515 0.01 0.0 1.0 38.6817305917 0.0 0.0
2 -14.99448915 2.99889783 10.767317805 0.01 0.0 1.0 38.6817305917 0.0 0.0
2 -11.99559132 5.99779566 10.767317805 0.01 0.0 1.0 38.6817305917 0.0 0.0
2 -11.99559132 5.99779566 8.374580515 0.01 0.0 1.0 38.6817305917 0.0 0.0
1 -12.9468832164 9.9479853864 -9.57094916 0.01 1.0 1.0 38.6817305917 0.0 0.0
1 -11.0442994236 9.9479853864 -11.96368645 0.01 1.0 1.0 38.6817305917 0.0 0.0
1 -12.9468832164 14.0431972536 -11.96368645 0.01 1.0 1.0 38.6817305917 0.0 0.0
1 -11.0442994236 14.0431972536 -9.57094916 0.01 1.0 1.0 38.6817305917 0.0 0.0
1 -9.9479853864 12.9468832164 -11.96368645 0.01 1.0 1.0 38.6817305917 0.0 0.0
1 -14.0431972536 12.9468832164 -9.57094916 0.01 1.0 1.0 38.6817305917 0.0 0.0
1 -9.9479853864 11.0442994236 -9.57094916 0.01 1.0 1.0 38.6817305917 0.0 0.0
1 -14.0431972536 11.0442994236 -11.96368645 0.01 1.0 1.0 38.6817305917 0.0 0.0
2 -14.99448915 8.99669349 -10.767317805 0.01 0.0 1.0 38.6817305917 0.0 0.0
2 -14.99448915 8.99669349 -8.374580515 0.01 0.0 1.0 38.6817305917 0.0 0.0
2 -11.99559132 11.99559132 -8.374580515 0.01 0.0 1.0 38.6817305917 0.0 0.0
2 -11.99559132 11.99559132 -10.767317805 0.01 0.0 1.0 38.6817305917 0.0 0.0
1 -12.9468832164 9.9479853864 -4.78547458 0.01 1.0 1.0 38.6817305917 0.0 0.0
1 -11.0442994236 9.9479853864 -7.17821187 0.01 1.0 1.0 38.6817305917 0.0 0.0
1 -12.9468832164 14.0431972536 -7.17821187 0.01 1.0 1.0 38.6817305917 0.0 0.0
1 -11.0442994236 14.0431972536 -4.78547458 0.01 1.0 1.0 38.6817305917 0.0 0.0
1 -9.9479853864 12.9468832164 -7.17821187 0.01 1.0 1.0 38.6817305917 0.0 0.0
1 -14.0431972536 12.9468832164 -4.78547458 0.01 1.0 1.0 38.6817305917 0.0 0.0
1 -9.9479853864 11.0442994236 -4.78547458 0.01 1.0 1.0 38.6817305917 0.0 0.0
1 -14.0431972536 11.0442994236 -7.17821187 0.01 1.0 1.0 38.6817305917 0.0 0.0
2 -14.99448915 8.99669349 -5.981843225 0.01 0.0 1.0 38.6817305917 0.0 0.0
2 -14.99448915 8.99669349 -3.589105935 0.01 0.0 1.0 38.6817305917 0.0 0.0
2 -11.99559132 11.99559132 -3.589105935 0.01 0.0 1.0 38.6817305917 0.0 0.0
2 -11.99559132 11.99559132 -5.981843225 0.01 0.0 1.0 38.6817305917 0.0 0.0
1 -12.9468832164 9.9479853864 0.0 0.01 1.0 1.0 38.6817305917 0.0 0.0
1 -11.0442994236 9.9479853864 -2.39273729 0.01 1.0 1.0 38.6817305917 0.0 0.0
1 -12.9468832164 14.0431972536 -2.39273729 0.01 1.0 1.0 38.6817305917 0.0 0.0
1 -11.0442994236 14.0431972536 0.0 0.01 1.0 1.0 38.6817305917 0.0 0.0
1 -9.9479853864 12.9468832164 -2.39273729 0.01 1.0 1.0 38.6817305917 0.0 0.0
1 -14.0431972536 12.9468832164 0.0 0.01 1.0 1.0 38.6817305917 0.0 0.0
1 -9.9479853864 11.0442994236 0.0 0.01 1.0 1.0 38.6817305917 0.0 0.0
1 -14.0431972536 11.0442994236 -2.39273729 0.01 1.0 1.0 38.6817305917 0.0 0.0
2 -14.99448915 8.99669349 -1.196368645 0.01 0.0 1.0 38.6817305917 0.0 0.0
2 -14.99448915 8.99669349 1.196368645 0.01 0.0 1.0 38.6817305917 0.0 0.0
2 -11.99559132 11.99559132 1.196368645 0.01 0.0 1.0 38.6817305917 0.0 0.0
2 -11.99559132 11.99559132 -1.196368645 0.01 0.0 1.0 38.6817305917 0.0 0.0
1 -12.9468832164 9.9479853864 4.78547458 0.01 1.0 1.0 38.6817305917 0.0 0.0
1 -11.0442994236 9.9479853864 2.39273729 0.01 1.0 1.0 38.6817305917 0.0 0.0
1 -12.9468832164 14.0431972536 2.39273729 0.01 1.0 1.0 38.6817305917 0.0 0.0
1 -11.0442994236 14.0431972536 4.78547458 0.01 1.0 1.0 38.6817305917 0.0 0.0
1 -9.9479853864 12.9468832164 2.39273729 0.01 1.0 1.0 38.6817305917 0.0 0.0
1 -14.0431972536 12.9468832164 4.78547458 0.01 1.0 1.0 38.6817305917 0.0 0.0
1 -9.9479853864 11.0442994236 4.78547458 0.01 1.0 1.0 38.6817305917 0.0 0.0
1 -14.0431972536 11.0442994236 2.39273729 0.01 1.0 1.0 38.6817305917 0.0 0.0
2 -14.99448915 8.99669349 3.589105935 0.01 0.0 1.0 38.6817305917 0.0 0.0
2 -14.99448915 8.99669349 5.981843225 0.01 0.0 1.0 38.6817305917 0.0 0.0
2 -11.99559132 11.99559132 5.981843225 0.01 0.0 1.0 38.6817305917 0.0 0.0
2 -11.99559132 11.99559132 3.589105935 0.01 0.0 1.0 38.6817305917 0.0 0.0
1 -12.9468832164 9.9479853864 9.57094916 0.01 1.0 1.0 38.6817305917 0.0 0.0
1 -11.0442994236 9.9479853864 7.17821187 0.01 1.0 1.0 38.6817305917 0.0 0.0
1 -12.9468832164 14.0431972536 7.17821187 0.01 1.0 1.0 38.6817305917 0.0 0.0
1 -11.0442994236 14.0431972536 9.57094916 0.01 1.0 1.0 38.6817305917 0.0 0.0
1 -9.9479853864 12.9468832164 7.17821187 0.01 1.0 1.0 38.6817305917 0.0 0.0
1 -14.0431972536 12.9468832164 9.57094916 0.01 1.0 1.0 38.6817305917 0.0 0.0
1 -9.9479853864 11.0442994236 9.57094916 0.01 1.0 1.0 38.6817305917 0.0 0.0
1 -14.0431972536 11.0442994236 7.17821187 0.01 1.0 1.0 38.6817305917 0.0 0.0
2 -14.99448915 8.99669349 8.374580515 0.01 0.0 1.0 38.6817305917 0.0 0.0
2 -14.99448915 8.99669349 10.767317805 0.01 0.0 1.0 38.6817305917 0.0 0.0
2 -11.99559132 11.99559132 10.767317805 0.01 0.0 1.0 38.6817305917 0.0 0.0
2 -11.99559132 11.99559132 8.374580515 0.01 0.0 1.0 38.6817305917 0.0 0.0
1 -6.9490875564 -14.0431972536 -9.57094916 0.01 1.0 1.0 38.6817305917 0.0 0.0
1 -5.0465037636 -14.0431972536 -11.96368645 0.01 1.0 1.0 38.6817305917 0.0 0.0
1 -6.9490875564 -9.9479853864 -11.96368645 0.01 1.0 1.0 38.6817305917 0.0 0.0
1 -5.0465037636 -9.9479853864 -9.57094916 0.01 1.0 1.0 38.6817305917 0.0 0.0
1 -3.9501897264 -11.0442994236 -11.96368645 0.01 1.0 1.0 38.6817305917 0.0 0.0
1 -8.0454015936 -11.0442994236 -9.57094916 0.01 1.0 1.0 38.6817305917 0.0 0.0
1 -3.9501897264 -12.9468832164 -9.57094916 0.01 1.0 1.0 38.6817305917 0.0 0.0
1 -8.0454015936 -12.9468832164 -11.96368645 0.01 1.0 1.0 38.6817305917 0.0 0.0
2 -8.99669349 -14.99448915 -10.767317805 0.01 0.0 1.0 38.6817305917 0.0 0.0
2 -8.99669349 -14.99448915 -8.374580515 0.01 0.0 1.0 38.6817305917 0.0 0.0
2 -5.99779566 -11.99559132 -8.374580515 0.01 0.0 1.0 38.6817305917 0.0 0.0
2 -5.99779566 -11.99559132 -10.767317805 0.01 0.0 1.0 38.6817305917 0.0 0.0
1 -6.9490875564 -14.0431972536 -4.78547458 0.01 1.0 1.0 38.6817305917 0.0 0.0
1 -5.0465037636 -14.0431972536 -7.17821187 0.01 1.0 1.0 38.6817305917 0.0 0.0
1 -6.9490875564 -9.9479853864 -7.17821187 0.01 1.0 1.0 38.6817305917 0.0 0.0
1 -5.0465037636 -9.9479853864 -4.78547458 0.01 1.0 1.0 38.6817305917 0.0 0.0
1 -3.9501897264 -11.0442994236 -7.17821187 0.01 1.0 1.0 38.6817305917 0.0 0.0
1 -8.0454015936 -11.0442994236 -4.78547458 0.01 1.0 1.0 38.6817305917 0.0 0.0
1 -3.9501897264 -12.9468832164 -4.78547458 0.01 1.0 1.0 38.6817305917 0.0 0.0
1 -8.0454015936 -12.9468832164 -7.17821187 0.01 1.0 1.0 38.6817305917 0.0 0.0
2 -8.99669349 -14.99448915 -5.981843225 0.01 0.0 1.0 38.6817305917 0.0 0.0
2 -8.99669349 -14.99448915 -3.589105935 0.01 0.0 1.0 38.6817305917 0.0 0.0
2 -5.99779566 -11.99559132 -3.589105935 0.01 0.0 1.0 38.6817305917 0.0 0.0
2 -5.99779566 -11.99559132 -5.981843225 0.01 0.0 1.0 38.6817305917 0.0 0.0
1 -6.9490875564 -14.0431972536 0.0 0.01 1.0 1.0 38.6817305917 0.0 0.0
1 -5.0465037636 -14.0431972536 -2.39273729 0.01 1.0 1.0 38.6817305917 0.0 0.0
1 -6.9490875564 -9.9479853864 -2.39273729 0.01 1.0 1.0 38.6817305917 0.0 0.0
1 -5.0465037636 -9.9479853864 0.0 0.01 1.0 1.0 38.6817305917 0.0 0.0
1 -3.9501897264 -11.0442994236 -2.39273729 0.01 1.0 1.0 38.6817305917 0.0 0.0
1 -8.0454015936 -11.0442994236 0.0 0.01 1.0 1.0 38.6817305917 0.0 0.0
1 -3.9501897264 -12.9468832164 0.0 0.01 1.0 1.0 38.6817305917 0.0 0.0
1 -8.0454015936 -12.9468832164 -2.39273729 0.01 1.0 1.0 38.6817305917 0.0 0.0
2 -8.99669349 -14.99448915 -1.196368645 0.01 0.0 1.0 38.6817305917 0.0 0.0
2 -8.99669349 -14.99448915 1.196368645 0.01 0.0 1.0 38.6817305917 0.0 0.0
2 -5.99779566 -11.99559132 1.196368645 0.01 0.0 1.0 38.6817305917 0.0 0.0
2 -5.99779566 -11.99559132 -1.196368645 0.01 0.0 1.0 38.6817305917 0.0 0.0
1 -6.9490875564 -14.0431972536 4.78547458 0.01 1.0 1.0 38.6817305917 0.0 0.0
1 -5.0465037636 -14.0431972536 2.39273729 0.01 1.0 1.0 38.6817305917 0.0 0.0
1 -6.9490875564 -9.9479853864 2.39273729 0.01 1.0 1.0 38.6817305917 0.0 0.0
1 -5.0465037636 -9.9479853864 4.78547458 0.01 1.0 1.0 38.6817305917 0.0 0.0
1 -3.9501897264 -11.0442994236 2.39273729 0.01 1.0 1.0 38.6817305917 0.0 0.0
1 -8.0454015936 -11.0442994236 4.78547458 0.01 1.0 1.0 38.6817305917 0.0 0.0
1 -3.9501897264 -12.9468832164 4.78547458 0.01 1.0 1.0 38.6817305917 0.0 0.0
1 -8.0454015936 -12.9468832164 2.39273729 0.01 1.0 1.0 38.6817305917 0.0 0.0
2 -8.99669349 -14.99448915 3.589105935 0.01 0.0 1.0 38.6817305917 0.0 0.0
2 -8.99669349 -14.99448915 5.981843225 0.01 0.0 1.0 38.6817305917 0.0 0.0
2 -5.99779566 -11.99559132 5.981843225 0.01 0.0 1.0 38.6817305917 0.0 0.0
2 -5.99779566 -11.99559132 3.589105935 0.01 0.0 1.0 38.6817305917 0.0 0.0
1 -6.9490875564 -14.0431972536 9.57094916 0.01 1.0 1.0 38.6817305917 0.0 0.0
1 -5.0465037636 -14.0431972536 7.17821187 0.01 1.0 1.0 38.6817305917 0.0 0.0
1 -6.9490875564 -9.9479853864 7.17821187 0.01 1.0 1.0 38.6817305917 0.0 0.0
1 -5.0465037636 -9.9479853864 9.57094916 0.01 1.0 1.0 38.6817305917 0.0 0.0
1 -3.9501897264 -11.0442994236 7.17821187 0.01 1.0 1.0 38.6817305917 0.0 0.0
1 -8.0454015936 -11.0442994236 9.57094916 0.01 1.0 1.0 38.6817305917 0.0 0.0
1 -3.9501897264 -12.9468832164 9.57094916 0.01 1.0 1.0 38.6817305917 0.0 0.0
1 -8.0454015936 -12.9468832164 7.17821187 0.01 1.0 1.0 38.6817305917 0.0 0.0
2 -8.99669349 -14.99448915 8.374580515 0.01 0.0 1.0 38.6817305917 0.0 0.0
2 -8.99669349 -14.99448915 10.767317805 0.01 0.0 1.0 38.6817305917 0.0 0.0
2 -5.99779566 -11.99559132 10.767317805 0.01 0.0 1.0 38.6817305917 0.0 0.0
2 -5.99779566 -11.99559132 8.374580515 0.01 0.0 1.0 38.6817305917 0.0 0.0
1 -6.9490875564 -8.0454015936 -9.57094916 0.01 1.0 1.0 38.6817305917 0.0 0.0
1 -5.0465037636 -8.0454015936 -11.96368645 0.01 1.0 1.0 38.6817305917 0.0 0.0
1 -6.9490875564 -3.9501897264 -11.96368645 0.01 1.0 1.0 38.6817305917 0.0 0.0
1 -5.0465037636 -3.9501897264 -9.57094916 0.01 1.0 1.0 38.6817305917 0.0 0.0
1 -3.9501897264 -5.0465037636 -11.96368645 0.01 1.0 1.0 38.6817305917 0.0 0.0
1 -8.0454015936 -5.0465037636 -9.57094916 0.01 1.0 1.0 38.6817305917 0.0 0.0
1 -3.9501897264 -6.9490875564 -9.57094916 0.01 1.0 1.0 38.6817305917 0.0 0.0
1 -8.0454015936 -6.9490875564 -11.96368645 0.01 1.0 1.0 38.6817305917 0.0 0.0
2 -8.99669349 -8.99669349 -10.767317805 0.01 0.0 1.0 38.6817305917 0.0 0.0
2 -8.99669349 -8.99669349 -8.374580515 0.01 0.0 1.0 38.6817305917 0.0 0.0
2 -5.99779566 -5.99779566 -8.374580515 0.01 0.0 1.0 38.6817305917 0.0 0.0
2 -5.99779566 -5.99779566 -10.767317805 0.01 0.0 1.0 38.6817305917 0.0 0.0
1 -6.9490875564 -8.0454015936 -4.78547458 0.01 1.0 1.0 38.6817305917 0.0 0.0
1 -5.0465037636 -8.0454015936 -7.17821187 0.01 1.0 1.0 38.6817305917 0.0 0.0
1 -6.9490875564 -3.9501897264 -7.17821187 0.01 1.0 1.0 38.6817305917 0.0 0.0
1 -5.0465037636 -3.9501897264 -4.78547458 0.01 1.0 1.0 38.6817305917 0.0 0.0
1 -3.9501897264 -5.0465037636 -7.17821187 0.01 1.0 1.0 38.6817305917 0.0 0.0
1 -8.0454015936 -5.0465037636 -4.78547458 0.01 1.0 1.0 38.6817305917 0.0 0.0
1 -3.9501897264 -6.9490875564 -4.78547458 0.01 1.0 1.0 38.6817305917 0.0 0.0
1 -8.0454015936 -6.9490875564 -7.17821187 0.01 1.0 1.0 38.6817305917 0.0 0.0
2 -8.99669349 -8.99669349 -5.981843225 0.01 0.0 1.0 38.6817305917 0.0 0.0
2 -8.99669349 -8.99669349 -3.589105935 0.01 0.0 1.0 38.6817305917 0.0 0.0
2 -5.99779566 -5.99779566 -3.589105935 0.01 0.0 1.0 38.6817305917 0.0 0.0
2 -5.99779566 -5.99779566 -5.981843225 0.01 0.0 1.0 38.6817305917 0.0 0.0
1 -6.9490875564 -8.0454015936 0.0 0.01 1.0 1.0 38.6817305917 0.0 0.0
1 -5.0465037636 -8.0454015936 -2.39273729 0.01 1.0 1.0 38.6817305917 0.0 0.0
1 -6.9490875564 -3.9501897264 -2.39273729 0.01 1.0 1.0 38.6817305917 0.0 0.0
1 -5.0465037636 -3.9501897264 0.0 0.01 1.0 1.0 38.6817305917 0.0 0.0
1 -3.9501897264 -5.0465037636 -2.39273729 0.01 1.0 1.0 38.6817305917 0.0 0.0
1 -8.0454015936 -5.0465037636 0.0 0.01 1.0 1.0 38.6817305917 0.0 0.0
1 -3.9501897264 -6.9490875564 0.0 0.01 1.0 1.0 38.6817305917 0.0 0.0
1 -8.0454015936 -6.9490875564 -2.39273729 0.01 1.0 1.0 38.6817305917 0.0 0.0
2 -8.99669349 -8.99669349 -1.196368645 0.01 0.0 1.0 38.6817305917 0.0 0.0