ITEM: TIMESTEP
0
ITEM: NUMBER OF ATOMS
2592
ITEM: BOX BOUNDS pp pp pp
-12.134 24.268
-12.134 24.268
-9.754 19.508
ITEM: ATOMS type x y z Stdvq Molarfraction chemicalmultp thermalmultp chemicalmultpbcc thermalmultpbcc
2 -12.134 -12.134 -8.53475 0.01 0.6666666667 1.0 38.6817305917 0.0 0.0
2 -12.134 -12.134 -6.09625 0.01 0.6666666667 1.0 38.6817305917 0.0 0.0
2 -9.1005 -9.1005 -6.09625 0.01 0.6666666667 1.0 38.6817305917 0.0 0.0
2 -9.1005 -9.1005 -8.53475 0.01 0.6666666667 1.0 38.6817305917 0.0 0.0
1 -11.1748073 -8.1413073 -9.754 0.01 0.6666666667 1.0 38.6817305917 0.0 0.0
1 -10.0596927 -11.1748073 -9.754 0.01 0.6666666667 1.0 38.6817305917 0.0 0.0
1 -7.0261927 -10.0596927 -9.754 0.01 0.6666666667 1.0 38.6817305917 0.0 0.0
1 -8.1413073 -7.0261927 -9.754 0.01 0.6666666667 1.0 38.6817305917 0.0 0.0
1 -11.1748073 -10.0596927 -7.3155 0.01 0.6666666667 1.0 38.6817305917 0.0 0.0
1 -10.0596927 -7.0261927 -7.3155 0.01 0.6666666667 1.0 38.6817305917 0.0 0.0
1 -7.0261927 -8.1413073 -7.3155 0.01 0.6666666667 1.0 38.6817305917 0.0 0.0
1 -8.1413073 -11.1748073 -7.3155 0.01 0.6666666667 1.0 38.6817305917 0.0 0.0
2 -12.134 -12.134 -3.65775 0.01 0.6666666667 1.0 38.6817305917 0.0 0.0
2 -12.134 -12.134 -1.21925 0.01 0.6666666667 1.0 38.6817305917 0.0 0.0
2 -9.1005 -9.1005 -1.21925 0.01 0.6666666667 1.0 38.6817305917 0.0 0.0
2 -9.1005 -9.1005 -3.65775 0.01 0.6666666667 1.0 38.6817305917 0.0 0.0
1 -11.1748073 -8.1413073 -4.877 0.01 0.6666666667 1.0 38.6817305917 0.0 0.0
1 -10.0596927 -11.1748073 -4.877 0.01 0.6666666667 1.0 38.6817305917 0.0 0.0
1 -7.0261927 -10.0596927 -4.877 0.01 0.6666666667 1.0 38.6817305917 0.0 0.0
1 -8.1413073 -7.0261927 -4.877 0.01 0.6666666667 1.0 38.6817305917 0.0 0.0
1 -11.1748073 -10.0596927 -2.4385 0.01 0.6666666667 1.0 38.6817305917 0.0 0.0
1 -10.0596927 -7.0261927 -2.4385 0.01 0.6666666667 1.0 38.6817305917 0.0 0.0
1 -7.0261927 -8.1413073 -2.4385 0.01 0.6666666667 1.0 38.6817305917 0.0 0.0
1 -8.1413073 -11.1748073 -2.4385 0.01 0.6666666667 1.0 38.6817305917 0.0 0.0
2 -12.134 -12.134 1.21925 0.01 0.6666666667 1.0 38.6817305917 0.0 0.0
2 -12.134 -12.134 3.65775 0.01 0.6666666667 1.0 38.6817305917 0.0 0.0
2 -9.1005 -9.1005 3.65775 0.01 0.6666666667 1.0 38.6817305917 0.0 0.0
2 -9.1005 -9.1005 1.21925 0.01 0.6666666667 1.0 38.6817305917 0.0 0.0
1 -11.1748073 -8.1413073 0.0 0.01 0.6666666667 1.0 38.6817305917 0.0 0.0
1 -10.0596927 -11.1748073 0.0 0.01 0.6666666667 1.0 38.6817305917 0.0 0.0
1 -7.0261927 -10.0596927 0.0 0.01 0.6666666667 1.0 38.6817305917 0.0 0.0
1 -8.1413073 -7.0261927 0.0 0.01 0.6666666667 1.0 38.6817305917 0.0 0.0
1 -11.1748073 -10.0596927 2.4385 0.01 0.6666666667 1.0 38.6817305917 0.0 0.0
1 -10.0596927 -7.0261927 2.4385 0.01 0.6666666667 1.0 38.6817305917 0.0 0.0
1 -7.0261927 -8.1413073 2.4385 0.01 0.6666666667 1.0 38.6817305917 0.0 0.0
1 -8.1413073 -11.1748073 2.4385 0.01 0.6666666667 1.0 38.6817305917 0.0 0.0
2 -12.134 -12.134 6.09625 0.01 0.6666666667 1.0 38.6817305917 0.0 0.0
2 -12.134 -12.134 8.53475 0.01 0.6666666667 1.0 38.6817305917 0.0 0.0
2 -9.1005 -9.1005 8.53475 0.01 0.6666666667 1.0 38.6817305917 0.0 0.0
2 -9.1005 -9.1005 6.09625 0.01 0.6666666667 1.0 38.6817305917 0.0 0.0
1 -11.1748073 -8.1413073 4.877 0.01 0.6666666667 1.0 38.6817305917 0.0 0.0
1 -10.0596927 -11.1748073 4.877 0.01 0.6666666667 1.0 38.6817305917 0.0 0.0
1 -7.0261927 -10.0596927 4.877 0.01 0.6666666667 1.0 38.6817305917 0.0 0.0
1 -8.1413073 -7.0261927 4.877 0.01 0.6666666667 1.0 38.6817305917 0.0 0.0
1 -11.1748073 -10.0596927 7.3155 0.01 0.6666666667 1.0 38.6817305917 0.0 0.0
1 -10.0596927 -7.0261927 7.3155 0.01 0.6666666667 1.0 38.6817305917 0.0 0.0
1 -7.0261927 -8.1413073 7.3155 0.01 0.6666666667 1.0 38.6817305917 0.0 0.0
1 -8.1413073 -11.1748073 7.3155 0.01 0.6666666667 1.0 38.6817305917 0.0 0.0
2 -12.134 -12.134 10.97325 0.01 0.6666666667 1.0 38.6817305917 0.0 0.0
2 -12.134 -12.134 13.41175 0.01 0.6666666667 1.0 38.6817305917 0.0 0.0
2 -9.1005 -9.1005 13.41175 0.01 0.6666666667 1.0 38.6817305917 0.0 0.0
2 -9.1005 -9.1005 10.97325 0.01 0.6666666667 1.0 38.6817305917 0.0 0.0
1 -11.1748073 -8.1413073 9.754 0.01 0.6666666667 1.0 38.6817305917 0.0 0.0
1 -10.0596927 -11.1748073 9.754 0.01 0.6666666667 1.0 38.6817305917 0.0 0.0
1 -7.0261927 -10.0596927 9.754 0.01 0.6666666667 1.0 38.6817305917 0.0 0.0
1 -8.1413073 -7.0261927 9.754 0.01 0.6666666667 1.0 38.6817305917 0.0 0.0
1 -11.1748073 -10.0596927 12.1925 0.01 0.6666666667 1.0 38.6817305917 0.0 0.0
1 -10.0596927 -7.0261927 12.1925 0.01 0.6666666667 1.0 38.6817305917 0.0 0.0
1 -7.0261927 -8.1413073 12.1925 0.01 0.6666666667 1.0 38.6817305917 0.0 0.0
1 -8.1413073 -11.1748073 12.1925 0.01 0.6666666667 1.0 38.6817305917 0.0 0.0
2 -12.134 -12.134 15.85025 0.01 0.6666666667 1.0 38.6817305917 0.0 0.0
2 -12.134 -12.134 18.28875 0.01 0.6666666667 1.0 38.6817305917 0.0 0.0
2 -9.1005 -9.1005 18.28875 0.01 0.6666666667 1.0 38.6817305917 0.0 0.0
2 -9.1005 -9.1005 15.85025 0.01 0.6666666667 1.0 38.6817305917 0.0 0.0
1 -11.1748073 -8.1413073 14.631 0.01 0.6666666667 1.0 38.6817305917 0.0 0.0
1 -10.0596927 -11.1748073 14.631 0.01 0.6666666667 1.0 38.6817305917 0.0 0.0
1 -7.0261927 -10.0596927 14.631 0.01 0.6666666667 1.0 38.6817305917 0.0 0.0
1 -8.1413073 -7.0261927 14.631 0.01 0.6666666667 1.0 38.6817305917 0.0 0.0
1 -11.1748073 -10.0596927 17.0695 0.01 0.6666666667 1.0 38.6817305917 0.0 0.0
1 -10.0596927 -7.0261927 17.0695 0.01 0.6666666667 1.0 38.6817305917 0.0 0.0
1 -7.0261927 -8.1413073 17.0695 0.01 0.6666666667 1.0 38.6817305917 0.0 0.0
1 -8.1413073 -11.1748073 17.0695 0.01 0.6666666667 1.0 38.6817305917 0.0 0.0
2 -12.134 -6.067 -8.53475 0.01 0.6666666667 1.0 38.6817305917 0.0 0.0
2 -12.134 -6.067 -6.09625 0.01 0.6666666667 1.0 38.6817305917 0.0 0.0
2 -9.1005 -3.0335 -6.09625 0.01 0.6666666667 1.0 38.6817305917 0.0 0.0
2 -9.1005 -3.0335 -8.53475 0.01 0.6666666667 1.0 38.6817305917 0.0 0.0
1 -11.1748073 -2.0743073 -9.754 0.01 0.6666666667 1.0 38.6817305917 0.0 0.0
1 -10.0596927 -5.1078073 -9.754 0.01 0.6666666667 1.0 38.6817305917 0.0 0.0
1 -7.0261927 -3.9926927 -9.754 0.01 0.6666666667 1.0 38.6817305917 0.0 0.0
1 -8.1413073 -0.9591927 -9.754 0.01 0.6666666667 1.0 38.6817305917 0.0 0.0
1 -11.1748073 -3.9926927 -7.3155 0.01 0.6666666667 1.0 38.6817305917 0.0 0.0
1 -10.0596927 -0.9591927 -7.3155 0.01 0.6666666667 1.0 38.6817305917 0.0 0.0
1 -7.0261927 -2.0743073 -7.3155 0.01 0.6666666667 1.0 38.6817305917 0.0 0.0
1 -8.1413073 -5.1078073 -7.3155 0.01 0.6666666667 1.0 38.6817305917 0.0 0.0
2 -12.134 -6.067 -3.65775 0.01 0.6666666667 1.0 38.6817305917 0.0 0.0
2 -12.134 -6.067 -1.21925 0.01 0.6666666667 1.0 38.6817305917 0.0 0.0
2 -9.1005 -3.0335 -1.21925 0.01 0.6666666667 1.0 38.6817305917 0.0 0.0
2 -9.1005 -3.0335 -3.65775 0.01 0.6666666667 1.0 38.6817305917 0.0 0.0
1 -11.1748073 -2.0743073 -4.877 0.01 0.6666666667 1.0 38.6817305917 0.0 0.0
1 -10.0596927 -5.1078073 -4.877 0.01 0.6666666667 1.0 38.6817305917 0.0 0.0
1 -7.0261927 -3.9926927 -4.877 0.01 0.6666666667 1.0 38.6817305917 0.0 0.0
1 -8.1413073 -0.9591927 -4.877 0.01 0.6666666667 1.0 38.6817305917 0.0 0.0
1 -11.1748073 -3.9926927 -2.4385 0.01 0.6666666667 1.0 38.6817305917 0.0 0.0
1 -10.0596927 -0.9591927 -2.4385 0.01 0.6666666667 1.0 38.6817305917 0.0 0.0
1 -7.0261927 -2.0743073 -2.4385 0.01 0.6666666667 1.0 38.6817305917 0.0 0.0
1 -8.1413073 -5.1078073 -2.4385 0.01 0.6666666667 1.0 38.6817305917 0.0 0.0
2 -12.134 -6.067 1.21925 0.01 0.6666666667 1.0 38.6817305917 0.0 0.0
2 -12.134 -6.067 3.65775 0.01 0.6666666667 1.0 38.6817305917 0.0 0.0
2 -9.1005 -3.0335 3.65775 0.01 0.6666666667 1.0 38.6817305917 0.0 0.0
2 -9.1005 -3.0335 1.21925 0.01 0.6666666667 1.0 38.6817305917 0.0 0.0
1 -11.1748073 -2.0743073 0.0 0.01 0.6666666667 1.0 38.6817305917 0.0 0.0
1 -10.0596927 -5.1078073 0.0 0.01 0.6666666667 1.0 38.6817305917 0.0 0.0
1 -7.0261927 -3.9926927 0.0 0.01 0.6666666667 1.0 38.6817305917 0.0 0.0
1 -8.1413073 -0.9591927 0.0 0.01 0.6666666667 1.0 38.6817305917 0.0 0.0
1 -11.1748073 -3.9926927 2.4385 0.01 0.6666666667 1.0 38.6817305917 0.0 0.0
1 -10.0596927 -0.9591927 2.4385 0.01 0.6666666667 1.0 38.6817305917 0.0 0.0
1 -7.0261927 -2.0743073 2.4385 0.01 0.6666666667 1.0 38.6817305917 0.0 0.0
1 -8.1413073 -5.1078073 2.4385 0.01 0.6666666667 1.0 38.6817305917 0.0 0.0
2 -12.134 -6.067 6.09625 0.01 0.6666666667 1.0 38.6817305917 0.0 0.0
2 -12.134 -6.067 8.53475 0.01 0.6666666667 1.0 38.6817305917 0.0 0.0
2 -9.1005 -3.0335 8.53475 0.01 0.6666666667 1.0 38.6817305917 0.0 0.0
2 -9.1005 -3.0335 6.09625 0.01 0.6666666667 1.0 38.6817305917 0.0 0.0
1 -11.1748073 -2.0743073 4.877 0.01 0.6666666667 1.0 38.6817305917 0.0 0.0
1 -10.0596927 -5.1078073 4.877 0.01 0.6666666667 1.0 38.6817305917 0.0 0.0
1 -7.0261927 -3.9926927 4.877 0.01 0.6666666667 1.0 38.6817305917 0.0 0.0
1 -8.1413073 -0.9591927 4.877 0.01 0.6666666667 1.0 38.6817305917 0.0 0.0
1 -11.1748073 -3.9926927 7.3155 0.01 0.6666666667 1.0 38.6817305917 0.0 0.0
1 -10.0596927 -0.9591927 7.3155 0.01 0.6666666667 1.0 38.6817305917 0.0 0.0
1 -7.0261927 -2.0743073 7.3155 0.01 0.6666666667 1.0 38.6817305917 0.0 0.0
1 -8.1413073 -5.1078073 7.3155 0.01 0.6666666667 1.0 38.6817305917 0.0 0.0
2 -12.134 -6.067 10.97325 0.01 0.6666666667 1.0 38.6817305917 0.0 0.0
2 -12.134 -6.067 13.41175 0.01 0.6666666667 1.0 38.6817305917 0.0 0.0
2 -9.1005 -3.0335 13.41175 0.01 0.6666666667 1.0 38.6817305917 0.0 0.0
2 -9.1005 -3.0335 10.97325 0.01 0.6666666667 1.0 38.6817305917 0.0 0.0
1 -11.1748073 -2.0743073 9.754 0.01 0.6666666667 1.0 38.6817305917 0.0 0.0
1 -10.0596927 -5.1078073 9.754 0.01 0.6666666667 1.0 38.6817305917 0.0 0.0
1 -7.0261927 -3.9926927 9.754 0.01 0.6666666667 1.0 38.6817305917 0.0 0.0
1 -8.1413073 -0.9591927 9.754 0.01 0.6666666667 1.0 38.6817305917 0.0 0.0
1 -11.1748073 -3.9926927 12.1925 0.01 0.6666666667 1.0 38.6817305917 0.0 0.0
1 -10.0596927 -0.9591927 12.1925 0.01 0.6666666667 1.0 38.6817305917 0.0 0.0
1 -7.0261927 -2.0743073 12.1925 0.01 0.6666666667 1.0 38.6817305917 0.0 0.0
1 -8.1413073 -5.1078073 12.1925 0.01 0.6666666667 1.0 38.6817305917 0.0 0.0
2 -12.134 -6.067 15.85025 0.01 0.6666666667 1.0 38.6817305917 0.0 0.0
2 -12.134 -6.067 18.28875 0.01 0.6666666667 1.0 38.6817305917 0.0 0.0
2 -9.1005 -3.0335 18.28875 0.01 0.6666666667 1.0 38.6817305917 0.0 0.0
2 -9.1005 -3.0335 15.85025 0.01 0.6666666667 1.0 38.6817305917 0.0 0.0
1 -11.1748073 -2.0743073 14.631 0.01 0.6666666667 1.0 38.6817305917 0.0 0.0
1 -10.0596927 -5.1078073 14.631 0.01 0.6666666667 1.0 38.6817305917 0.0 0.0
1 -7.0261927 -3.9926927 14.631 0.01 0.6666666667 1.0 38.6817305917 0.0 0.0
1 -8.1413073 -0.9591927 14.631 0.01 0.6666666667 1.0 38.6817305917 0.0 0.0
1 -11.1748073 -3.9926927 17.0695 0.01 0.6666666667 1.0 38.6817305917 0.0 0.0
1 -10.0596927 -0.9591927 17.0695 0.01 0.6666666667 1.0 38.6817305917 0.0 0.0
1 -7.0261927 -2.0743073 17.0695 0.01 0.6666666667 1.0 38.6817305917 0.0 0.0
1 -8.1413073 -5.1078073 17.0695 0.01 0.6666666667 1.0 38.6817305917 0.0 0.0
2 -12.134 0.0 -8.53475 0.01 0.6666666667 1.0 38.6817305917 0.0 0.0
2 -12.134 0.0 -6.09625 0.01 0.6666666667 1.0 38.6817305917 0.0 0.0
2 -9.1005 3.0335 -6.09625 0.01 0.6666666667 1.0 38.6817305917 0.0 0.0
2 -9.1005 3.0335 -8.53475 0.01 0.6666666667 1.0 38.6817305917 0.0 0.0
1 -11.1748073 3.9926927 -9.754 0.01 0.6666666667 1.0 38.6817305917 0.0 0.0
1 -10.0596927 0.9591927 -9.754 0.01 0.6666666667 1.0 38.6817305917 0.0 0.0
1 -7.0261927 2.0743073 -9.754 0.01 0.6666666667 1.0 38.6817305917 0.0 0.0
1 -8.1413073 5.1078073 -9.754 0.01 0.6666666667 1.0 38.6817305917 0.0 0.0
1 -11.1748073 2.0743073 -7.3155 0.01 0.6666666667 1.0 38.6817305917 0.0 0.0
1 -10.0596927 5.1078073 -7.3155 0.01 0.6666666667 1.0 38.6817305917 0.0 0.0
1 -7.0261927 3.9926927 -7.3155 0.01 0.6666666667 1.0 38.6817305917 0.0 0.0
1 -8.1413073 0.9591927 -7.3155 0.01 0.6666666667 1.0 38.6817305917 0.0 0.0
2 -12.134 0.0 -3.65775 0.01 0.6666666667 1.0 38.6817305917 0.0 0.0
2 -12.134 0.0 -1.21925 0.01 0.6666666667 1.0 38.6817305917 0.0 0.0
2 -9.1005 3.0335 -1.21925 0.01 0.6666666667 1.0 38.6817305917 0.0 0.0
2 -9.1005 3.0335 -3.65775 0.01 0.6666666667 1.0 38.6817305917 0.0 0.0
1 -11.1748073 3.9926927 -4.877 0.01 0.6666666667 1.0 38.6817305917 0.0 0.0
1 -10.0596927 0.9591927 -4.877 0.01 0.6666666667 1.0 38.6817305917 0.0 0.0
1 -7.0261927 2.0743073 -4.877 0.01 0.6666666667 1.0 38.6817305917 0.0 0.0
1 -8.1413073 5.1078073 -4.877 0.01 0.6666666667 1.0 38.6817305917 0.0 0.0
1 -11.1748073 2.0743073 -2.4385 0.01 0.6666666667 1.0 38.6817305917 0.0 0.0
1 -10.0596927 5.1078073 -2.4385 0.01 0.6666666667 1.0 38.6817305917 0.0 0.0
1 -7.0261927 3.9926927 -2.4385 0.01 0.6666666667 1.0 38.6817305917 0.0 0.0
1 -8.1413073 0.9591927 -2.4385 0.01 0.6666666667 1.0 38.6817305917 0.0 0.0
2 -12.134 0.0 1.21925 0.01 0.6666666667 1.0 38.6817305917 0.0 0.0
2 -12.134 0.0 3.65775 0.01 0.6666666667 1.0 38.6817305917 0.0 0.0
2 -9.1005 3.0335 3.65775 0.01 0.6666666667 1.0 38.6817305917 0.0 0.0
2 -9.1005 3.0335 1.21925 0.01 0.6666666667 1.0 38.6817305917 0.0 0.0
1 -11.1748073 3.9926927 0.0 0.01 0.6666666667 1.0 38.6817305917 0.0 0.0
1 -10.0596927 0.9591927 0.0 0.01 0.6666666667 1.0 38.6817305917 0.0 0.0
1 -7.0261927 2.0743073 0.0 0.01 0.6666666667 1.0 38.6817305917 0.0 0.0
1 -8.1413073 5.1078073 0.0 0.01 0.6666666667 1.0 38.6817305917 0.0 0.0
1 -11.1748073 2.0743073 2.4385 0.01 0.6666666667 1.0 38.6817305917 0.0 0.0
1 -10.0596927 5.1078073 2.4385 0.01 0.6666666667 1.0 38.6817305917 0.0 0.0
1 -7.0261927 3.9926927 2.4385 0.01 0.6666666667 1.0 38.6817305917 0.0 0.0
1 -8.1413073 0.9591927 2.4385 0.01 0.6666666667 1.0 38.6817305917 0.0 0.0
2 -12.134 0.0 6.09625 0.01 0.6666666667 1.0 38.6817305917 0.0 0.0
2 -12.134 0.0 8.53475 0.01 0.6666666667 1.0 38.6817305917 0.0 0.0
2 -9.1005 3.0335 8.53475 0.01 0.6666666667 1.0 38.6817305917 0.0 0.0
2 -9.1005 3.0335 6.09625 0.01 0.6666666667 1.0 38.6817305917 0.0 0.0
1 -11.1748073 3.9926927 4.877 0.01 0.6666666667 1.0 38.6817305917 0.0 0.0
1 -10.0596927 0.9591927 4.877 0.01 0.6666666667 1.0 38.6817305917 0.0 0.0
1 -7.0261927 2.0743073 4.877 0.01 0.6666666667 1.0 38.6817305917 0.0 0.0
1 -8.1413073 5.1078073 4.877 0.01 0.6666666667 1.0 38.6817305917 0.0 0.0
1 -11.1748073 2.0743073 7.3155 0.01 0.6666666667 1.0 38.6817305917 0.0 0.0
1 -10.0596927 5.1078073 7.3155 0.01 0.6666666667 1.0 38.6817305917 0.0 0.0
1 -7.0261927 3.9926927 7.3155 0.01 0.6666666667 1.0 38.6817305917 0.0 0.0
1 -8.1413073 0.9591927 7.3155 0.01 0.6666666667 1.0 38.6817305917 0.0 0.0
2 -12.134 0.0 10.97325 0.01 0.6666666667 1.0 38.6817305917 0.0 0.0
2 -12.134 0.0 13.41175 0.01 0.6666666667 1.0 38.6817305917 0.0 0.0
2 -9.1005 3.0335 13.41175 0.01 0.6666666667 1.0 38.6817305917 0.0 0.0
2 -9.1005 3.0335 10.97325 0.01 0.6666666667 1.0 38.6817305917 0.0 0.0
1 -11.1748073 3.9926927 9.754 0.01 0.6666666667 1.0 38.6817305917 0.0 0.0
1 -10.0596927 0.9591927 9.754 0.01 0.6666666667 1.0 38.6817305917 0.0 0.0
1 -7.0261927 2.0743073 9.754 0.01 0.6666666667 1.0 38.6817305917 0.0 0.0
1 -8.1413073 5.1078073 9.754 0.01 0.6666666667 1.0 38.6817305917 0.0 0.0
1 -11.1748073 2.0743073 12.1925 0.01 0.6666666667 1.0 38.6817305917 0.0 0.0
1 -10.0596927 5.1078073 12.1925 0.01 0.6666666667 1.0 38.6817305917 0.0 0.0
1 -7.0261927 3.9926927 12.1925 0.01 0.6666666667 1.0 38.6817305917 0.0 0.0
1 -8.1413073 0.9591927 12.1925 0.01 0.6666666667 1.0 38.6817305917 0.0 0.0
2 -12.134 0.0 15.85025 0.01 0.6666666667 1.0 38.6817305917 0.0 0.0
2 -12.134 0.0 18.28875 0.01 0.6666666667 1.0 38.6817305917 0.0 0.0
2 -9.1005 3.0335 18.28875 0.01 0.6666666667 1.0 38.6817305917 0.0 0.0
2 -9.1005 3.0335 15.85025 0.01 0.6666666667 1.0 38.6817305917 0.0 0.0
1 -11.1748073 3.9926927 14.631 0.01 0.6666666667 1.0 38.6817305917 0.0 0.0
1 -10.0596927 0.9591927 14.631 0.01 0.6666666667 1.0 38.6817305917 0.0 0.0
1 -7.0261927 2.0743073 14.631 0.01 0.6666666667 1.0 38.6817305917 0.0 0.0
1 -8.1413073 5.1078073 14.631 0.01 0.6666666667 1.0 38.6817305917 0.0 0.0
1 -11.1748073 2.0743073 17.0695 0.01 0.6666666667 1.0 38.6817305917 0.0 0.0
1 -10.0596927 5.1078073 17.0695 0.01 0.6666666667 1.0 38.6817305917 0.0 0.0
1 -7.0261927 3.9926927 17.0695 0.01 0.6666666667 1.0 38.6817305917 0.0 0.0
1 -8.1413073 0.9591927 17.0695 0.01 0.6666666667 1.0 38.6817305917 0.0 0.0
2 -12.134 6.067 -8.53475 0.01 0.6666666667 1.0 38.6817305917 0.0 0.0
2 -12.134 6.067 -6.09625 0.01 0.6666666667 1.0 38.6817305917 0.0 0.0
2 -9.1005 9.1005 -6.09625 0.01 0.6666666667 1.0 38.6817305917 0.0 0.0
2 -9.1005 9.1005 -8.53475 0.01 0.6666666667 1.0 38.6817305917 0.0 0.0
1 -11.1748073 10.0596927 -9.754 0.01 0.6666666667 1.0 38.6817305917 0.0 0.0
1 -10.0596927 7.0261927 -9.754 0.01 0.6666666667 1.0 38.6817305917 0.0 0.0
1 -7.0261927 8.1413073 -9.754 0.01 0.6666666667 1.0 38.6817305917 0.0 0.0
1 -8.1413073 11.1748073 -9.754 0.01 0.6666666667 1.0 38.6817305917 0.0 0.0
1 -11.1748073 8.1413073 -7.3155 0.01 0.6666666667 1.0 38.6817305917 0.0 0.0
1 -10.0596927 11.1748073 -7.3155 0.01 0.6666666667 1.0 38.6817305917 0.0 0.0
1 -7.0261927 10.0596927 -7.3155 0.01 0.6666666667 1.0 38.6817305917 0.0 0.0
1 -8.1413073 7.0261927 -7.3155 0.01 0.6666666667 1.0 38.6817305917 0.0 0.0
2 -12.134 6.067 -3.65775 0.01 0.6666666667 1.0 38.6817305917 0.0 0.0
2 -12.134 6.067 -1.21925 0.01 0.6666666667 1.0 38.6817305917 0.0 0.0
2 -9.1005 9.1005 -1.21925 0.01 0.6666666667 1.0 38.6817305917 0.0 0.0
2 -9.1005 9.1005 -3.65775 0.01 0.6666666667 1.0 38.6817305917 0.0 0.0
1 -11.1748073 10.0596927 -4.877 0.01 0.6666666667 1.0 38.6817305917 0.0 0.0
1 -10.0596927 7.0261927 -4.877 0.01 0.6666666667 1.0 38.6817305917 0.0 0.0
1 -7.0261927 8.1413073 -4.877 0.01 0.6666666667 1.0 38.6817305917 0.0 0.0
1 -8.1413073 11.1748073 -4.877 0.01 0.6666666667 1.0 38.6817305917 0.0 0.0
1 -11.1748073 8.1413073 -2.4385 0.01 0.6666666667 1.0 38.6817305917 0.0 0.0
1 -10.0596927 11.1748073 -2.4385 0.01 0.6666666667 1.0 38.6817305917 0.0 0.0
1 -7.0261927 10.0596927 -2.4385 0.01 0.6666666667 1.0 38.6817305917 0.0 0.0
1 -8.1413073 7.0261927 -2.4385 0.01 0.6666666667 1.0 38.6817305917 0.0 0.0
2 -12.134 6.067 1.21925 0.01 0.6666666667 1.0 38.6817305917 0.0 0.0
2 -12.134 6.067 3.65775 0.01 0.6666666667 1.0 38.6817305917 0.0 0.0
2 -9.1005 9.1005 3.65775 0.01 0.6666666667 1.0 38.6817305917 0.0 0.0
2 -9.1005 9.1005 1.21925 0.01 0.6666666667 1.0 38.6817305917 0.0 0.0
1 -11.1748073 10.0596927 0.0 0.01 0.6666666667 1.0 38.6817305917 0.0 0.0
1 -10.0596927 7.0261927 0.0 0.01 0.6666666667 1.0 38.6817305917 0.0 0.0
1 -7.0261927 8.1413073 0.0 0.01 0.6666666667 1.0 38.6817305917 0.0 0.0
1 -8.1413073 11.1748073 0.0 0.01 0.6666666667 1.0 38.6817305917 0.0 0.0
1 -11.1748073 8.1413073 2.4385 0.01 0.6666666667 1.0 38.6817305917 0.0 0.0
1 -10.0596927 11.1748073 2.4385 0.01 0.6666666667 1.0 38.6817305917 0.0 0.0
1 -7.0261927 10.0596927 2.4385 0.01 0.6666666667 1.0 38.6817305917 0.0 0.0
1 -8.1413073 7.0261927 2.4385 0.01 0.6666666667 1.0 38.6817305917 0.0 0.0
2 -12.134 6.067 6.09625 0.01 0.6666666667 1.0 38.6817305917 0.0 0.0
2 -12.134 6.067 8.53475 0.01 0.6666666667 1.0 38.6817305917 0.0 0.0
2 -9.1005 9.1005 8.53475 0.01 0.6666666667 1.0 38.6817305917 0.0 0.0
2 -9.1005 9.1005 6.09625 0.01 0.6666666667 1.0 38.6817305917 0.0 0.0
1 -11.1748073 10.0596927 4.877 0.01 0.6666666667 1.0 38.6817305917 0.0 0.0
1 -10.0596927 7.0261927 4.877 0.01 0.6666666667 1.0 38.6817305917 0.0 0.0
1 -7.0261927 8.1413073 4.877 0.01 0.6666666667 1.0 38.6817305917 0.0 0.0
1 -8.1413073 11.1748073 4.877 0.01 0.6666666667 1.0 38.6817305917 0.0 0.0
1 -11.1748073 8.1413073 7.3155 0.01 0.6666666667 1.0 38.6817305917 0.0 0.0
1 -10.0596927 11.1748073 7.3155 0.01 0.6666666667 1.0 38.6817305917 0.0 0.0
1 -7.0261927 10.0596927 7.3155 0.01 0.6666666667 1.0 38.6817305917 0.0 0.0
1 -8.1413073 7.0261927 7.3155 0.01 0.6666666667 1.0 38.6817305917 0.0 0.0
2 -12.134 6.067 10.97325 0.01 0.6666666667 1.0 38.6817305917 0.0 0.0
2 -12.134 6.067 13.41175 0.01 0.6666666667 1.0 38.6817305917 0.0 0.0
2 -9.1005 9.1005 13.41175 0.01 0.6666666667 1.0 38.6817305917 0.0 0.0
2 -9.1005 9.1005 10.97325 0.01 0.6666666667 1.0 38.6817305917 0.0 0.0
1 -11.1748073 10.0596927 9.754 0.01 0.6666666667 1.0 38.6817305917 0.0 0.0
1 -10.0596927 7.0261927 9.754 0.01 0.6666666667 1.0 38.6817305917 0.0 0.0
1 -7.0261927 8.1413073 9.754 0.01 0.6666666667 1.0 38.6817305917 0.0 0.0
1 -8.1413073 11.1748073 9.754 0.01 0.6666666667 1.0 38.6817305917 0.0 0.0
1 -11.1748073 8.1413073 12.1925 0.01 0.6666666667 1.0 38.6817305917 0.0 0.0
1 -10.0596927 11.1748073 12.1925 0.01 0.6666666667 1.0 38.6817305917 0.0 0.0
1 -7.0261927 10.0596927 12.1925 0.01 0.6666666667 1.0 38.6817305917 0.0 0.0
1 -8.1413073 7.0261927 12.1925 0.01 0.6666666667 1.0 38.6817305917 0.0 0.0
2 -12.134 6.067 15.85025 0.01 0.6666666667 1.0 38.6817305917 0.0 0.0
2 -12.134 6.067 18.28875 0.01 0.6666666667 1.0 38.6817305917 0.0 0.0
2 -9.1005 9.1005 18.28875 0.01 0.6666666667 1.0 38.6817305917 0.0 0.0
2 -9.1005 9.1005 15.85025 0.01 0.6666666667 1.0 38.6817305917 0.0 0.0
1 -11.1748073 10.0596927 14.631 0.01 0.6666666667 1.0 38.6817305917 0.0 0.0
1 -10.0596927 7.0261927 14.631 0.01 0.6666666667 1.0 38.6817305917 0.0 0.0
1 -7.0261927 8.1413073 14.631 0.01 0.6666666667 1.0 38.6817305917 0.0 0.0
1 -8.1413073 11.1748073 14.631 0.01 0.6666666667 1.0 38.6817305917 0.0 0.0
1 -11.1748073 8.1413073 17.0695 0.01 0.6666666667 1.0 38.6817305917 0.0 0.0
1 -10.0596927 11.1748073 17.0695 0.01 0.6666666667 1.0 38.6817305917 0.0 0.0
1 -7.0261927 10.0596927 17.0695 0.01 0.6666666667 1.0 38.6817305917 0.0 0.0
1 -8.1413073 7.0261927 17.0695 0.01 0.6666666667 1.0 38.6817305917 0.0 0.0
2 -12.134 12.134 -8.53475 0.01 0.6666666667 1.0 38.6817305917 0.0 0.0
2 -12.134 12.134 -6.09625 0.01 0.6666666667 1.0 38.6817305917 0.0 0.0
2 -9.1005 15.1675 -6.09625 0.01 0.6666666667 1.0 38.6817305917 0.0 0.0
2 -9.1005 15.1675 -8.53475 0.01 0.6666666667 1.0 38.6817305917 0.0 0.0
1 -11.1748073 16.1266927 -9.754 0.01 0.6666666667 1.0 38.6817305917 0.0 0.0
1 -10.0596927 13.0931927 -9.754 0.01 0.6666666667 1.0 38.6817305917 0.0 0.0
1 -7.0261927 14.2083073 -9.754 0.01 0.6666666667 1.0 38.6817305917 0.0 0.0
1 -8.1413073 17.2418073 -9.754 0.01 0.6666666667 1.0 38.6817305917 0.0 0.0
1 -11.1748073 14.2083073 -7.3155 0.01 0.6666666667 1.0 38.6817305917 0.0 0.0
1 -10.0596927 17.2418073 -7.3155 0.01 0.6666666667 1.0 38.6817305917 0.0 0.0
1 -7.0261927 16.1266927 -7.3155 0.01 0.6666666667 1.0 38.6817305917 0.0 0.0
1 -8.1413073 13.0931927 -7.3155 0.01 0.6666666667 1.0 38.6817305917 0.0 0.0
2 -12.134 12.134 -3.65775 0.01 0.6666666667 1.0 38.6817305917 0.0 0.0
2 -12.134 12.134 -1.21925 0.01 0.6666666667 1.0 38.6817305917 0.0 0.0
2 -9.1005 15.1675 -1.21925 0.01 0.6666666667 1.0 38.6817305917 0.0 0.0
2 -9.1005 15.1675 -3.65775 0.01 0.6666666667 1.0 38.6817305917 0.0 0.0
1 -11.1748073 16.1266927 -4.877 0.01 0.6666666667 1.0 38.6817305917 0.0 0.0
1 -10.0596927 13.0931927 -4.877 0.01 0.6666666667 1.0 38.6817305917 0.0 0.0
1 -7.0261927 14.2083073 -4.877 0.01 0.6666666667 1.0 38.6817305917 0.0 0.0
1 -8.1413073 17.2418073 -4.877 0.01 0.6666666667 1.0 38.6817305917 0.0 0.0
1 -11.1748073 14.2083073 -2.4385 0.01 0.6666666667 1.0 38.6817305917 0.0 0.0
1 -10.0596927 17.2418073 -2.4385 0.01 0.6666666667 1.0 38.6817305917 0.0 0.0
1 -7.0261927 16.1266927 -2.4385 0.01 0.6666666667 1.0 38.6817305917 0.0 0.0
1 -8.1413073 13.0931927 -2.4385 0.01 0.6666666667 1.0 38.6817305917 0.0 0.0
2 -12.134 12.134 1.21925 0.01 0.6666666667 1.0 38.6817305917 0.0 0.0
2 -12.134 12.134 3.65775 0.01 0.6666666667 1.0 38.6817305917 0.0 0.0
2 -9.1005 15.1675 3.65775 0.01 0.6666666667 1.0 38.6817305917 0.0 0.0
2 -9.1005 15.1675 1.21925 0.01 0.6666666667 1.0 38.6817305917 0.0 0.0
1 -11.1748073 16.1266927 0.0 0.01 0.6666666667 1.0 38.6817305917 0.0 0.0
1 -10.0596927 13.0931927 0.0 0.01 0.6666666667 1.0 38.6817305917 0.0 0.0
1 -7.0261927 14.2083073 0.0 0.01 0.6666666667 1.0 38.6817305917 0.0 0.0
1 -8.1413073 17.2418073 0.0 0.01 0.6666666667 1.0 38.6817305917 0.0 0.0
1 -11.1748073 14.2083073 2.4385 0.01 0.6666666667 1.0 38.6817305917 0.0 0.0
1 -10.0596927 17.2418073 2.4385 0.01 0.6666666667 1.0 38.6817305917 0.0 0.0
1 -7.0261927 16.1266927 2.4385 0.01 0.6666666667 1.0 38.6817305917 0.0 0.0
1 -8.1413073 13.0931927 2.4385 0.01 0.6666666667 1.0 38.6817305917 0.0 0.0
2 -12.134 12.134 6.09625 0.01 0.6666666667 1.0 38.6817305917 0.0 0.0
2 -12.134 12.134 8.53475 0.01 0.6666666667 1.0 38.6817305917 0.0 0.0
2 -9.1005 15.1675 8.53475 0.01 0.6666666667 1.0 38.6817305917 0.0 0.0
2 -9.1005 15.1675 6.09625 0.01 0.6666666667 1.0 38.6817305917 0.0 0.0
1 -11.1748073 16.1266927 4.877 0.01 0.6666666667 1.0 38.6817305917 0.0 0.0
1 -10.0596927 13.0931927 4.877 0.01 0.6666666667 1.0 38.6817305917 0.0 0.0
1 -7.0261927 14.2083073 4.877 0.01 0.6666666667 1.0 38.6817305917 0.0 0.0
1 -8.1413073 17.2418073 4.877 0.01 0.6666666667 1.0 38.6817305917 0.0 0.0
1 -11.1748073 14.2083073 7.3155 0.01 0.6666666667 1.0 38.6817305917 0.0 0.0
1 -10.0596927 17.2418073 7.3155 0.01 0.6666666667 1.0 38.6817305917 0.0 0.0
1 -7.0261927 16.1266927 7.3155 0.01 0.6666666667 1.0 38.6817305917 0.0 0.0
1 -8.1413073 13.0931927 7.3155 0.01 0.6666666667 1.0 38.6817305917 0.0 0.0
2 -12.134 12.134 10.97325 0.01 0.6666666667 1.0 38.6817305917 0.0 0.0
2 -12.134 12.134 13.41175 0.01 0.6666666667 1.0 38.6817305917 0.0 0.0
2 -9.1005 15.1675 13.41175 0.01 0.6666666667 1.0 38.6817305917 0.0 0.0
2 -9.1005 15.1675 10.97325 0.01 0.6666666667 1.0 38.6817305917 0.0 0.0
1 -11.1748073 16.1266927 9.754 0.01 0.6666666667 1.0 38.6817305917 0.0 0.0
1 -10.0596927 13.0931927 9.754 0.01 0.6666666667 1.0 38.6817305917 0.0 0.0
1 -7.0261927 14.2083073 9.754 0.01 0.6666666667 1.0 38.6817305917 0.0 0.0
1 -8.1413073 17.2418073 9.754 0.01 0.6666666667 1.0 38.6817305917 0.0 0.0
1 -11.1748073 14.2083073 12.1925 0.01 0.6666666667 1.0 38.6817305917 0.0 0.0
1 -10.0596927 17.2418073 12.1925 0.01 0.6666666667 1.0 38.6817305917 0.0 0.0
1 -7.0261927 16.1266927 12.1925 0.01 0.6666666667 1.0 38.6817305917 0.0 0.0
1 -8.1413073 13.0931927 12.1925 0.01 0.6666666667 1.0 38.6817305917 0.0 0.0
2 -12.134 12.134 15.85025 0.01 0.6666666667 1.0 38.6817305917 0.0 0.0
2 -12.134 12.134 18.28875 0.01 0.6666666667 1.0 38.6817305917 0.0 0.0
2 -9.1005 15.1675 18.28875 0.01 0.6666666667 1.0 38.6817305917 0.0 0.0
2 -9.1005 15.1675 15.85025 0.01 0.6666666667 1.0 38.6817305917 0.0 0.0
1 -11.1748073 16.1266927 14.631 0.01 0.6666666667 1.0 38.6817305917 0.0 0.0
1 -10.0596927 13.0931927 14.631 0.01 0.6666666667 1.0 38.6817305917 0.0 0.0
1 -7.0261927 14.2083073 14.631 0.01 0.6666666667 1.0 38.6817305917 0.0 0.0
1 -8.1413073 17.2418073 14.631 0.01 0.6666666667 1.0 38.6817305917 0.0 0.0
1 -11.1748073 14.2083073 17.0695 0.01 0.6666666667 1.0 38.6817305917 0.0 0.0
1 -10.0596927 17.2418073 17.0695 0.01 0.6666666667 1.0 38.6817305917 0.0 0.0
1 -7.0261927 16.1266927 17.0695 0.01 0.6666666667 1.0 38.6817305917 0.0 0.0
1 -8.1413073 13.0931927 17.0695 0.01 0.6666666667 1.0 38.6817305917 0.0 0.0
2 -12.134 18.201 -8.53475 0.01 0.6666666667 1.0 38.6817305917 0.0 0.0
2 -12.134 18.201 -6.09625 0.01 0.6666666667 1.0 38.6817305917 0.0 0.0
2 -9.1005 21.2345 -6.09625 0.01 0.6666666667 1.0 38.6817305917 0.0 0.0
2 -9.1005 21.2345 -8.53475 0.01 0.6666666667 1.0 38.6817305917 0.0 0.0
1 -11.1748073 22.1936927 -9.754 0.01 0.6666666667 1.0 38.6817305917 0.0 0.0
1 -10.0596927 19.1601927 -9.754 0.01 0.6666666667 1.0 38.6817305917 0.0 0.0
1 -7.0261927 20.2753073 -9.754 0.01 0.6666666667 1.0 38.6817305917 0.0 0.0
1 -8.1413073 23.3088073 -9.754 0.01 0.6666666667 1.0 38.6817305917 0.0 0.0
1 -11.1748073 20.2753073 -7.3155 0.01 0.6666666667 1.0 38.6817305917 0.0 0.0
1 -10.0596927 23.3088073 -7.3155 0.01 0.6666666667 1.0 38.6817305917 0.0 0.0
1 -7.0261927 22.1936927 -7.3155 0.01 0.6666666667 1.0 38.6817305917 0.0 0.0
1 -8.1413073 19.1601927 -7.3155 0.01 0.6666666667 1.0 38.6817305917 0.0 0.0
2 -12.134 18.201 -3.65775 0.01 0.6666666667 1.0 38.6817305917 0.0 0.0
2 -12.134 18.201 -1.21925 0.01 0.6666666667 1.0 38.6817305917 0.0 0.0
2 -9.1005 21.2345 -1.21925 0.01 0.6666666667 1.0 38.6817305917 0.0 0.0
2 -9.1005 21.2345 -3.65775 0.01 0.6666666667 1.0 38.6817305917 0.0 0.0
1 -11.1748073 22.1936927 -4.877 0.01 0.6666666667 1.0 38.6817305917 0.0 0.0
1 -10.0596927 19.1601927 -4.877 0.01 0.6666666667 1.0 38.6817305917 0.0 0.0
1 -7.0261927 20.2753073 -4.877 0.01 0.6666666667 1.0 38.6817305917 0.0 0.0
1 -8.1413073 23.3088073 -4.877 0.01 0.6666666667 1.0 38.6817305917 0.0 0.0
1 -11.1748073 20.2753073 -2.4385 0.01 0.6666666667 1.0 38.6817305917 0.0 0.0
1 -10.0596927 23.3088073 -2.4385 0.01 0.6666666667 1.0 38.6817305917 0.0 0.0
1 -7.0261927 22.1936927 -2.4385 0.01 0.6666666667 1.0 38.6817305917 0.0 0.0
1 -8.1413073 19.1601927 -2.4385 0.01 0.6666666667 1.0 38.6817305917 0.0 0.0
2 -12.134 18.201 1.21925 0.01 0.6666666667 1.0 38.6817305917 0.0 0.0
2 -12.134 18.201 3.65775 0.01 0.6666666667 1.0 38.6817305917 0.0 0.0
2 -9.1005 21.2345 3.65775 0.01 0.6666666667 1.0 38.6817305917 0.0 0.0
2 -9.1005 21.2345 1.21925 0.01 0.6666666667 1.0 38.6817305917 0.0 0.0
1 -11.1748073 22.1936927 0.0 0.01 0.6666666667 1.0 38.6817305917 0.0 0.0
1 -10.0596927 19.1601927 0.0 0.01 0.6666666667 1.0 38.6817305917 0.0 0.0
1 -7.0261927 20.2753073 0.0 0.01 0.6666666667 1.0 38.6817305917 0.0 0.0
1 -8.1413073 23.3088073 0.0 0.01 0.6666666667 1.0 38.6817305917 0.0 0.0
1 -11.1748073 20.2753073 2.4385 0.01 0.6666666667 1.0 38.6817305917 0.0 0.0
1 -10.0596927 23.3088073 2.4385 0.01 0.6666666667 1.0 38.6817305917 0.0 0.0
1 -7.0261927 22.1936927 2.4385 0.01 0.6666666667 1.0 38.6817305917 0.0 0.0
1 -8.1413073 19.1601927 2.4385 0.01 0.6666666667 1.0 38.6817305917 0.0 0.0
2 -12.134 18.201 6.09625 0.01 0.6666666667 1.0 38.6817305917 0.0 0.0
2 -12.134 18.201 8.53475 0.01 0.6666666667 1.0 38.6817305917 0.0 0.0
2 -9.1005 21.2345 8.53475 0.01 0.6666666667 1.0 38.6817305917 0.0 0.0
2 -9.1005 21.2345 6.09625 0.01 0.6666666667 1.0 38.6817305917 0.0 0.0
1 -11.1748073 22.1936927 4.877 0.01 0.6666666667 1.0 38.6817305917 0.0 0.0
1 -10.0596927 19.1601927 4.877 0.01 0.6666666667 1.0 38.6817305917 0.0 0.0
1 -7.0261927 20.2753073 4.877 0.01 0.6666666667 1.0 38.6817305917 0.0 0.0
1 -8.1413073 23.3088073 4.877 0.01 0.6666666667 1.0 38.6817305917 0.0 0.0
1 -11.1748073 20.2753073 7.3155 0.01 0.6666666667 1.0 38.6817305917 0.0 0.0