 # Bcc W.
  
           2  atoms
           1  atom types
 
      0.000000000000       3.155000000000  xlo xhi
      0.000000000000       3.155000000000  ylo yhi
      0.000000000000       3.155000000000  zlo zhi
 
Masses
 
            1   183.84000000            # W
 
Atoms # atomic
 
         1    1        0.000000000000       0.000000000000       0.000000000000
         2    1        1.577500000000       1.577500000000       1.577500000000
