# LAMMPS data file written by OVITO Basic 3.10.6

12 atoms
2 atom types

0.0 6.067 xlo xhi
0.0 6.067 ylo yhi
0.0 4.877 zlo zhi

Atom Type Labels

1 Al
2 Cu

Masses

1 26.981538  # Al
2 63.546  # Cu

Atoms  # atomic

1 2 0.0 0.0 1.21925
2 2 0.0 0.0 3.65775
3 2 3.0335 3.0335 3.65775
4 2 3.0335 3.0335 1.21925
5 1 0.9591927 3.9926927 0.0
6 1 2.0743073 0.9591927 0.0
7 1 5.1078073 2.0743073 0.0
8 1 3.9926927 5.1078073 0.0
9 1 0.9591927 2.0743073 2.4385
10 1 2.0743073 5.1078073 2.4385
11 1 5.1078073 3.9926927 2.4385
12 1 3.9926927 0.9591927 2.4385
