ITEM: TIMESTEP
0
ITEM: NUMBER OF ATOMS
500
ITEM: BOX BOUNDS abc origin pp pp pp
20.23 0.0 0.0-8.092
0.0 20.23 0.0-8.092
0.0 0.0 20.23-8.092
ITEM: ATOMS type x y z id
13 -8.092 -8.092 -8.092 1
13 -6.069 -6.069 -8.092 2
13 -8.092 -6.069 -6.069 3
13 -6.069 -8.092 -6.069 4
13 -8.092 -8.092 -4.046 5
13 -6.069 -6.069 -4.046 6
13 -8.092 -6.069 -2.023 7
13 -6.069 -8.092 -2.023 8
13 -8.092 -8.092 0.0 9
13 -6.069 -6.069 0.0 10
13 -8.092 -6.069 2.023 11
13 -6.069 -8.092 2.023 12
13 -8.092 -8.092 4.046 13
13 -6.069 -6.069 4.046 14
13 -8.092 -6.069 6.069 15
13 -6.069 -8.092 6.069 16
13 -8.092 -8.092 8.092 17
13 -6.069 -6.069 8.092 18
13 -8.092 -6.069 10.115 19
13 -6.069 -8.092 10.115 20
13 -8.092 -4.046 -8.092 21
13 -6.069 -2.023 -8.092 22
13 -8.092 -2.023 -6.069 23
13 -6.069 -4.046 -6.069 24
13 -8.092 -4.046 -4.046 25
13 -6.069 -2.023 -4.046 26
13 -8.092 -2.023 -2.023 27
13 -6.069 -4.046 -2.023 28
13 -8.092 -4.046 0.0 29
13 -6.069 -2.023 0.0 30
13 -8.092 -2.023 2.023 31
13 -6.069 -4.046 2.023 32
13 -8.092 -4.046 4.046 33
13 -6.069 -2.023 4.046 34
13 -8.092 -2.023 6.069 35
13 -6.069 -4.046 6.069 36
13 -8.092 -4.046 8.092 37
13 -6.069 -2.023 8.092 38
13 -8.092 -2.023 10.115 39
13 -6.069 -4.046 10.115 40
13 -8.092 0.0 -8.092 41
13 -6.069 2.023 -8.092 42
13 -8.092 2.023 -6.069 43
13 -6.069 0.0 -6.069 44
13 -8.092 0.0 -4.046 45
13 -6.069 2.023 -4.046 46
13 -8.092 2.023 -2.023 47
13 -6.069 0.0 -2.023 48
13 -8.092 0.0 0.0 49
13 -6.069 2.023 0.0 50
13 -8.092 2.023 2.023 51
13 -6.069 0.0 2.023 52
13 -8.092 0.0 4.046 53
13 -6.069 2.023 4.046 54
13 -8.092 2.023 6.069 55
13 -6.069 0.0 6.069 56
13 -8.092 0.0 8.092 57
13 -6.069 2.023 8.092 58
13 -8.092 2.023 10.115 59
13 -6.069 0.0 10.115 60
13 -8.092 4.046 -8.092 61
13 -6.069 6.069 -8.092 62
13 -8.092 6.069 -6.069 63
13 -6.069 4.046 -6.069 64
13 -8.092 4.046 -4.046 65
13 -6.069 6.069 -4.046 66
13 -8.092 6.069 -2.023 67
13 -6.069 4.046 -2.023 68
13 -8.092 4.046 0.0 69
13 -6.069 6.069 0.0 70
13 -8.092 6.069 2.023 71
13 -6.069 4.046 2.023 72
13 -8.092 4.046 4.046 73
13 -6.069 6.069 4.046 74
13 -8.092 6.069 6.069 75
13 -6.069 4.046 6.069 76
13 -8.092 4.046 8.092 77
13 -6.069 6.069 8.092 78
13 -8.092 6.069 10.115 79
13 -6.069 4.046 10.115 80
13 -8.092 8.092 -8.092 81
13 -6.069 10.115 -8.092 82
13 -8.092 10.115 -6.069 83
13 -6.069 8.092 -6.069 84
13 -8.092 8.092 -4.046 85
13 -6.069 10.115 -4.046 86
13 -8.092 10.115 -2.023 87
13 -6.069 8.092 -2.023 88
13 -8.092 8.092 0.0 89
13 -6.069 10.115 0.0 90
13 -8.092 10.115 2.023 91
13 -6.069 8.092 2.023 92
13 -8.092 8.092 4.046 93
13 -6.069 10.115 4.046 94
13 -8.092 10.115 6.069 95
13 -6.069 8.092 6.069 96
13 -8.092 8.092 8.092 97
13 -6.069 10.115 8.092 98
13 -8.092 10.115 10.115 99
13 -6.069 8.092 10.115 100
13 -4.046 -8.092 -8.092 101
13 -2.023 -6.069 -8.092 102
13 -4.046 -6.069 -6.069 103
13 -2.023 -8.092 -6.069 104
13 -4.046 -8.092 -4.046 105
13 -2.023 -6.069 -4.046 106
13 -4.046 -6.069 -2.023 107
13 -2.023 -8.092 -2.023 108
13 -4.046 -8.092 0.0 109
13 -2.023 -6.069 0.0 110
13 -4.046 -6.069 2.023 111
13 -2.023 -8.092 2.023 112
13 -4.046 -8.092 4.046 113
13 -2.023 -6.069 4.046 114
13 -4.046 -6.069 6.069 115
13 -2.023 -8.092 6.069 116
13 -4.046 -8.092 8.092 117
13 -2.023 -6.069 8.092 118
13 -4.046 -6.069 10.115 119
13 -2.023 -8.092 10.115 120
13 -4.046 -4.046 -8.092 121
13 -2.023 -2.023 -8.092 122
13 -4.046 -2.023 -6.069 123
13 -2.023 -4.046 -6.069 124
13 -4.046 -4.046 -4.046 125
13 -2.023 -2.023 -4.046 126
13 -4.046 -2.023 -2.023 127
13 -2.023 -4.046 -2.023 128
13 -4.046 -4.046 0.0 129
13 -2.023 -2.023 0.0 130
13 -4.046 -2.023 2.023 131
13 -2.023 -4.046 2.023 132
13 -4.046 -4.046 4.046 133
13 -2.023 -2.023 4.046 134
13 -4.046 -2.023 6.069 135
13 -2.023 -4.046 6.069 136
13 -4.046 -4.046 8.092 137
13 -2.023 -2.023 8.092 138
13 -4.046 -2.023 10.115 139
13 -2.023 -4.046 10.115 140
13 -4.046 0.0 -8.092 141
13 -2.023 2.023 -8.092 142
13 -4.046 2.023 -6.069 143
13 -2.023 0.0 -6.069 144
13 -4.046 0.0 -4.046 145
13 -2.023 2.023 -4.046 146
13 -4.046 2.023 -2.023 147
13 -2.023 0.0 -2.023 148
13 -4.046 0.0 0.0 149
13 -2.023 2.023 0.0 150
13 -4.046 2.023 2.023 151
13 -2.023 0.0 2.023 152
13 -4.046 0.0 4.046 153
13 -2.023 2.023 4.046 154
13 -4.046 2.023 6.069 155
13 -2.023 0.0 6.069 156
13 -4.046 0.0 8.092 157
13 -2.023 2.023 8.092 158
13 -4.046 2.023 10.115 159
13 -2.023 0.0 10.115 160
13 -4.046 4.046 -8.092 161
13 -2.023 6.069 -8.092 162
13 -4.046 6.069 -6.069 163
13 -2.023 4.046 -6.069 164
13 -4.046 4.046 -4.046 165
13 -2.023 6.069 -4.046 166
13 -4.046 6.069 -2.023 167
13 -2.023 4.046 -2.023 168
13 -4.046 4.046 0.0 169
13 -2.023 6.069 0.0 170
13 -4.046 6.069 2.023 171
13 -2.023 4.046 2.023 172
13 -4.046 4.046 4.046 173
13 -2.023 6.069 4.046 174
13 -4.046 6.069 6.069 175
13 -2.023 4.046 6.069 176
13 -4.046 4.046 8.092 177
13 -2.023 6.069 8.092 178
13 -4.046 6.069 10.115 179
13 -2.023 4.046 10.115 180
13 -4.046 8.092 -8.092 181
13 -2.023 10.115 -8.092 182
13 -4.046 10.115 -6.069 183
13 -2.023 8.092 -6.069 184
13 -4.046 8.092 -4.046 185
13 -2.023 10.115 -4.046 186
13 -4.046 10.115 -2.023 187
13 -2.023 8.092 -2.023 188
13 -4.046 8.092 0.0 189
13 -2.023 10.115 0.0 190
13 -4.046 10.115 2.023 191
13 -2.023 8.092 2.023 192
13 -4.046 8.092 4.046 193
13 -2.023 10.115 4.046 194
13 -4.046 10.115 6.069 195
13 -2.023 8.092 6.069 196
13 -4.046 8.092 8.092 197
13 -2.023 10.115 8.092 198
13 -4.046 10.115 10.115 199
13 -2.023 8.092 10.115 200
13 0.0 -8.092 -8.092 201
13 2.023 -6.069 -8.092 202
13 0.0 -6.069 -6.069 203
13 2.023 -8.092 -6.069 204
13 0.0 -8.092 -4.046 205
13 2.023 -6.069 -4.046 206
13 0.0 -6.069 -2.023 207
13 2.023 -8.092 -2.023 208
13 0.0 -8.092 0.0 209
13 2.023 -6.069 0.0 210
13 0.0 -6.069 2.023 211
13 2.023 -8.092 2.023 212
13 0.0 -8.092 4.046 213
13 2.023 -6.069 4.046 214
13 0.0 -6.069 6.069 215
13 2.023 -8.092 6.069 216
13 0.0 -8.092 8.092 217
13 2.023 -6.069 8.092 218
13 0.0 -6.069 10.115 219
13 2.023 -8.092 10.115 220
13 0.0 -4.046 -8.092 221
13 2.023 -2.023 -8.092 222
13 0.0 -2.023 -6.069 223
13 2.023 -4.046 -6.069 224
13 0.0 -4.046 -4.046 225
13 2.023 -2.023 -4.046 226
13 0.0 -2.023 -2.023 227
13 2.023 -4.046 -2.023 228
13 0.0 -4.046 0.0 229
13 2.023 -2.023 0.0 230
13 0.0 -2.023 2.023 231
13 2.023 -4.046 2.023 232
13 0.0 -4.046 4.046 233
13 2.023 -2.023 4.046 234
13 0.0 -2.023 6.069 235
13 2.023 -4.046 6.069 236
13 0.0 -4.046 8.092 237
13 2.023 -2.023 8.092 238
13 0.0 -2.023 10.115 239
13 2.023 -4.046 10.115 240
13 0.0 0.0 -8.092 241
13 2.023 2.023 -8.092 242
13 0.0 2.023 -6.069 243
13 2.023 0.0 -6.069 244
13 0.0 0.0 -4.046 245
13 2.023 2.023 -4.046 246
13 0.0 2.023 -2.023 247
13 2.023 0.0 -2.023 248
13 0.0 0.0 0.0 249
13 2.023 2.023 0.0 250
13 0.0 2.023 2.023 251
13 2.023 0.0 2.023 252
13 0.0 0.0 4.046 253
13 2.023 2.023 4.046 254
13 0.0 2.023 6.069 255
13 2.023 0.0 6.069 256
13 0.0 0.0 8.092 257
13 2.023 2.023 8.092 258
13 0.0 2.023 10.115 259
13 2.023 0.0 10.115 260
13 0.0 4.046 -8.092 261
13 2.023 6.069 -8.092 262
13 0.0 6.069 -6.069 263
13 2.023 4.046 -6.069 264
13 0.0 4.046 -4.046 265
13 2.023 6.069 -4.046 266
13 0.0 6.069 -2.023 267
13 2.023 4.046 -2.023 268
13 0.0 4.046 0.0 269
13 2.023 6.069 0.0 270
13 0.0 6.069 2.023 271
13 2.023 4.046 2.023 272
13 0.0 4.046 4.046 273
13 2.023 6.069 4.046 274
13 0.0 6.069 6.069 275
13 2.023 4.046 6.069 276
13 0.0 4.046 8.092 277
13 2.023 6.069 8.092 278
13 0.0 6.069 10.115 279
13 2.023 4.046 10.115 280
13 0.0 8.092 -8.092 281
13 2.023 10.115 -8.092 282
13 0.0 10.115 -6.069 283
13 2.023 8.092 -6.069 284
13 0.0 8.092 -4.046 285
13 2.023 10.115 -4.046 286
13 0.0 10.115 -2.023 287
13 2.023 8.092 -2.023 288
13 0.0 8.092 0.0 289
13 2.023 10.115 0.0 290
13 0.0 10.115 2.023 291
13 2.023 8.092 2.023 292
13 0.0 8.092 4.046 293
13 2.023 10.115 4.046 294
13 0.0 10.115 6.069 295
13 2.023 8.092 6.069 296
13 0.0 8.092 8.092 297
13 2.023 10.115 8.092 298
13 0.0 10.115 10.115 299
13 2.023 8.092 10.115 300
13 4.046 -8.092 -8.092 301
13 6.069 -6.069 -8.092 302
13 4.046 -6.069 -6.069 303
13 6.069 -8.092 -6.069 304
13 4.046 -8.092 -4.046 305
13 6.069 -6.069 -4.046 306
13 4.046 -6.069 -2.023 307
13 6.069 -8.092 -2.023 308
13 4.046 -8.092 0.0 309
13 6.069 -6.069 0.0 310
13 4.046 -6.069 2.023 311
13 6.069 -8.092 2.023 312
13 4.046 -8.092 4.046 313
13 6.069 -6.069 4.046 314
13 4.046 -6.069 6.069 315
13 6.069 -8.092 6.069 316
13 4.046 -8.092 8.092 317
13 6.069 -6.069 8.092 318
13 4.046 -6.069 10.115 319
13 6.069 -8.092 10.115 320
13 4.046 -4.046 -8.092 321
13 6.069 -2.023 -8.092 322
13 4.046 -2.023 -6.069 323
13 6.069 -4.046 -6.069 324
13 4.046 -4.046 -4.046 325
13 6.069 -2.023 -4.046 326
13 4.046 -2.023 -2.023 327
13 6.069 -4.046 -2.023 328
13 4.046 -4.046 0.0 329
13 6.069 -2.023 0.0 330
13 4.046 -2.023 2.023 331
13 6.069 -4.046 2.023 332
13 4.046 -4.046 4.046 333
13 6.069 -2.023 4.046 334
13 4.046 -2.023 6.069 335
13 6.069 -4.046 6.069 336
13 4.046 -4.046 8.092 337
13 6.069 -2.023 8.092 338
13 4.046 -2.023 10.115 339
13 6.069 -4.046 10.115 340
13 4.046 0.0 -8.092 341
13 6.069 2.023 -8.092 342
13 4.046 2.023 -6.069 343
13 6.069 0.0 -6.069 344
13 4.046 0.0 -4.046 345
13 6.069 2.023 -4.046 346
13 4.046 2.023 -2.023 347
13 6.069 0.0 -2.023 348
13 4.046 0.0 0.0 349
13 6.069 2.023 0.0 350
13 4.046 2.023 2.023 351
13 6.069 0.0 2.023 352
13 4.046 0.0 4.046 353
13 6.069 2.023 4.046 354
13 4.046 2.023 6.069 355
13 6.069 0.0 6.069 356
13 4.046 0.0 8.092 357
13 6.069 2.023 8.092 358
13 4.046 2.023 10.115 359
13 6.069 0.0 10.115 360
13 4.046 4.046 -8.092 361
13 6.069 6.069 -8.092 362
13 4.046 6.069 -6.069 363
13 6.069 4.046 -6.069 364
13 4.046 4.046 -4.046 365
13 6.069 6.069 -4.046 366
13 4.046 6.069 -2.023 367
13 6.069 4.046 -2.023 368
13 4.046 4.046 0.0 369
13 6.069 6.069 0.0 370
13 4.046 6.069 2.023 371
13 6.069 4.046 2.023 372
13 4.046 4.046 4.046 373
13 6.069 6.069 4.046 374
13 4.046 6.069 6.069 375
13 6.069 4.046 6.069 376
13 4.046 4.046 8.092 377
13 6.069 6.069 8.092 378
13 4.046 6.069 10.115 379
13 6.069 4.046 10.115 380
13 4.046 8.092 -8.092 381
13 6.069 10.115 -8.092 382
13 4.046 10.115 -6.069 383
13 6.069 8.092 -6.069 384
13 4.046 8.092 -4.046 385
13 6.069 10.115 -4.046 386
13 4.046 10.115 -2.023 387
13 6.069 8.092 -2.023 388
13 4.046 8.092 0.0 389
13 6.069 10.115 0.0 390
13 4.046 10.115 2.023 391
13 6.069 8.092 2.023 392
13 4.046 8.092 4.046 393
13 6.069 10.115 4.046 394
13 4.046 10.115 6.069 395
13 6.069 8.092 6.069 396
13 4.046 8.092 8.092 397
13 6.069 10.115 8.092 398
13 4.046 10.115 10.115 399
13 6.069 8.092 10.115 400
13 8.092 -8.092 -8.092 401
13 10.115 -6.069 -8.092 402
13 8.092 -6.069 -6.069 403
13 10.115 -8.092 -6.069 404
13 8.092 -8.092 -4.046 405
13 10.115 -6.069 -4.046 406
13 8.092 -6.069 -2.023 407
13 10.115 -8.092 -2.023 408
13 8.092 -8.092 0.0 409
13 10.115 -6.069 0.0 410
13 8.092 -6.069 2.023 411
13 10.115 -8.092 2.023 412
13 8.092 -8.092 4.046 413
13 10.115 -6.069 4.046 414
13 8.092 -6.069 6.069 415
13 10.115 -8.092 6.069 416
13 8.092 -8.092 8.092 417
13 10.115 -6.069 8.092 418
13 8.092 -6.069 10.115 419
13 10.115 -8.092 10.115 420
13 8.092 -4.046 -8.092 421
13 10.115 -2.023 -8.092 422
13 8.092 -2.023 -6.069 423
13 10.115 -4.046 -6.069 424
13 8.092 -4.046 -4.046 425
13 10.115 -2.023 -4.046 426
13 8.092 -2.023 -2.023 427
13 10.115 -4.046 -2.023 428
13 8.092 -4.046 0.0 429
13 10.115 -2.023 0.0 430
13 8.092 -2.023 2.023 431
13 10.115 -4.046 2.023 432
13 8.092 -4.046 4.046 433
13 10.115 -2.023 4.046 434
13 8.092 -2.023 6.069 435
13 10.115 -4.046 6.069 436
13 8.092 -4.046 8.092 437
13 10.115 -2.023 8.092 438
13 8.092 -2.023 10.115 439
13 10.115 -4.046 10.115 440
13 8.092 0.0 -8.092 441
13 10.115 2.023 -8.092 442
13 8.092 2.023 -6.069 443
13 10.115 0.0 -6.069 444
13 8.092 0.0 -4.046 445
13 10.115 2.023 -4.046 446
13 8.092 2.023 -2.023 447
13 10.115 0.0 -2.023 448
13 8.092 0.0 0.0 449
13 10.115 2.023 0.0 450
13 8.092 2.023 2.023 451
13 10.115 0.0 2.023 452
13 8.092 0.0 4.046 453
13 10.115 2.023 4.046 454
13 8.092 2.023 6.069 455
13 10.115 0.0 6.069 456
13 8.092 0.0 8.092 457
13 10.115 2.023 8.092 458
13 8.092 2.023 10.115 459
13 10.115 0.0 10.115 460
13 8.092 4.046 -8.092 461
13 10.115 6.069 -8.092 462
13 8.092 6.069 -6.069 463
13 10.115 4.046 -6.069 464
13 8.092 4.046 -4.046 465
13 10.115 6.069 -4.046 466
13 8.092 6.069 -2.023 467
13 10.115 4.046 -2.023 468
13 8.092 4.046 0.0 469
13 10.115 6.069 0.0 470
13 8.092 6.069 2.023 471
13 10.115 4.046 2.023 472
13 8.092 4.046 4.046 473
13 10.115 6.069 4.046 474
13 8.092 6.069 6.069 475
13 10.115 4.046 6.069 476
13 8.092 4.046 8.092 477
13 10.115 6.069 8.092 478
13 8.092 6.069 10.115 479
13 10.115 4.046 10.115 480
13 8.092 8.092 -8.092 481
13 10.115 10.115 -8.092 482
13 8.092 10.115 -6.069 483
13 10.115 8.092 -6.069 484
13 8.092 8.092 -4.046 485
13 10.115 10.115 -4.046 486
13 8.092 10.115 -2.023 487
13 10.115 8.092 -2.023 488
13 8.092 8.092 0.0 489
13 10.115 10.115 0.0 490
13 8.092 10.115 2.023 491
13 10.115 8.092 2.023 492
13 8.092 8.092 4.046 493
13 10.115 10.115 4.046 494
13 8.092 10.115 6.069 495
13 10.115 8.092 6.069 496
13 8.092 8.092 8.092 497
13 10.115 10.115 8.092 498
13 8.092 10.115 10.115 499
13 10.115 8.092 10.115 500
