14
Lattice="4.05 0.0 0.0 0.0 4.05 0.0 0.0 0.0 4.05" u="0.158" Properties=species:S:1:pos:R:3 Time=0.0
Al    0.0000    0.0000    0
Al    4.05      0         0
Al    4.05      4.05      0
Al    0         4.05      0
Al    0.0000    0.0000    4.05
Al    4.05      0         4.05
Al    4.05      4.05      4.05
Al    0         4.05      4.05
Al    2.025     2.025     0     
Al    2.025     2.025     4.05
Al    2.025     0         2.025
Al    4.05      2.025     2.025     
Al    0         2.025     2.025
Al    2.025     4.05      2.025
