ITEM: TIMESTEP
0
ITEM: NUMBER OF ATOMS
32
ITEM: BOX BOUNDS pp pp pp
0.0 8.1
0.0 8.1
0.0 8.1
ITEM: ATOMS type x y z
13 0.0 0.0 0.0
13 2.025 2.025 0.0
29 0.0 2.025 2.025
13 2.025 0.0 2.025
13 0.0 0.0 4.05
13 2.025 2.025 4.05
29 0.0 2.025 6.075
13 2.025 0.0 6.075
29 0.0 4.05 0.0
13 2.025 6.075 0.0
29 0.0 6.075 2.025
13 2.025 4.05 2.025
13 0.0 4.05 4.05
13 2.025 6.075 4.05
13 0.0 6.075 6.075
13 2.025 4.05 6.075
29 4.05 0.0 0.0
13 6.075 2.025 0.0
13 4.05 2.025 2.025
13 6.075 0.0 2.025
13 4.05 0.0 4.05
29 6.075 2.025 4.05
13 4.05 2.025 6.075
29 6.075 0.0 6.075
13 4.05 4.05 0.0
13 6.075 6.075 0.0
13 4.05 6.075 2.025
29 6.075 4.05 2.025
13 4.05 4.05 4.05
29 6.075 6.075 4.05
13 4.05 6.075 6.075
29 6.075 4.05 6.075
