ITEM: TIMESTEP
0
ITEM: NUMBER OF ATOMS
4000
ITEM: BOX BOUNDS pp pp pp
-16.184 24.276
-16.184 24.276
-16.184 24.276
ITEM: ATOMS type x y z stdvq molarfraction chemicalmultp thermalmultp chemicalmultpbcc thermalmultpbcc
29 -16.184 -16.184 -16.184 0.01 0.0 1.0 38.6817305917 0.0 0.0
29 -14.161 -14.161 -16.184 0.01 0.0 1.0 38.6817305917 0.0 0.0
29 -16.184 -14.161 -14.161 0.01 0.0 1.0 38.6817305917 0.0 0.0
29 -14.161 -16.184 -14.161 0.01 0.0 1.0 38.6817305917 0.0 0.0
29 -16.184 -16.184 -12.138 0.01 0.0 1.0 38.6817305917 0.0 0.0
29 -14.161 -14.161 -12.138 0.01 0.0 1.0 38.6817305917 0.0 0.0
29 -16.184 -14.161 -10.115 0.01 0.0 1.0 38.6817305917 0.0 0.0
29 -14.161 -16.184 -10.115 0.01 0.0 1.0 38.6817305917 0.0 0.0
29 -16.184 -16.184 -8.092 0.01 0.0 1.0 38.6817305917 0.0 0.0
29 -14.161 -14.161 -8.092 0.01 0.0 1.0 38.6817305917 0.0 0.0
29 -16.184 -14.161 -6.069 0.01 0.0 1.0 38.6817305917 0.0 0.0
29 -14.161 -16.184 -6.069 0.01 0.0 1.0 38.6817305917 0.0 0.0
29 -16.184 -16.184 -4.046 0.01 0.0 1.0 38.6817305917 0.0 0.0
29 -14.161 -14.161 -4.046 0.01 0.0 1.0 38.6817305917 0.0 0.0
29 -16.184 -14.161 -2.023 0.01 0.0 1.0 38.6817305917 0.0 0.0
29 -14.161 -16.184 -2.023 0.01 0.0 1.0 38.6817305917 0.0 0.0
29 -16.184 -16.184 0.0 0.01 0.0 1.0 38.6817305917 0.0 0.0
29 -14.161 -14.161 0.0 0.01 0.0 1.0 38.6817305917 0.0 0.0
29 -16.184 -14.161 2.023 0.01 0.0 1.0 38.6817305917 0.0 0.0
29 -14.161 -16.184 2.023 0.01 0.0 1.0 38.6817305917 0.0 0.0
29 -16.184 -16.184 4.046 0.01 0.0 1.0 38.6817305917 0.0 0.0
29 -14.161 -14.161 4.046 0.01 0.0 1.0 38.6817305917 0.0 0.0
29 -16.184 -14.161 6.069 0.01 0.0 1.0 38.6817305917 0.0 0.0
29 -14.161 -16.184 6.069 0.01 0.0 1.0 38.6817305917 0.0 0.0
29 -16.184 -16.184 8.092 0.01 0.0 1.0 38.6817305917 0.0 0.0
29 -14.161 -14.161 8.092 0.01 0.0 1.0 38.6817305917 0.0 0.0
29 -16.184 -14.161 10.115 0.01 0.0 1.0 38.6817305917 0.0 0.0
29 -14.161 -16.184 10.115 0.01 0.0 1.0 38.6817305917 0.0 0.0
29 -16.184 -16.184 12.138 0.01 0.0 1.0 38.6817305917 0.0 0.0
29 -14.161 -14.161 12.138 0.01 0.0 1.0 38.6817305917 0.0 0.0
29 -16.184 -14.161 14.161 0.01 0.0 1.0 38.6817305917 0.0 0.0
29 -14.161 -16.184 14.161 0.01 0.0 1.0 38.6817305917 0.0 0.0
29 -16.184 -16.184 16.184 0.01 0.0 1.0 38.6817305917 0.0 0.0
29 -14.161 -14.161 16.184 0.01 0.0 1.0 38.6817305917 0.0 0.0
29 -16.184 -14.161 18.207 0.01 0.0 1.0 38.6817305917 0.0 0.0
29 -14.161 -16.184 18.207 0.01 0.0 1.0 38.6817305917 0.0 0.0
29 -16.184 -16.184 20.23 0.01 0.0 1.0 38.6817305917 0.0 0.0
29 -14.161 -14.161 20.23 0.01 0.0 1.0 38.6817305917 0.0 0.0
29 -16.184 -14.161 22.253 0.01 0.0 1.0 38.6817305917 0.0 0.0
29 -14.161 -16.184 22.253 0.01 0.0 1.0 38.6817305917 0.0 0.0
29 -16.184 -12.138 -16.184 0.01 0.0 1.0 38.6817305917 0.0 0.0
29 -14.161 -10.115 -16.184 0.01 0.0 1.0 38.6817305917 0.0 0.0
29 -16.184 -10.115 -14.161 0.01 0.0 1.0 38.6817305917 0.0 0.0
29 -14.161 -12.138 -14.161 0.01 0.0 1.0 38.6817305917 0.0 0.0
29 -16.184 -12.138 -12.138 0.01 0.0 1.0 38.6817305917 0.0 0.0
29 -14.161 -10.115 -12.138 0.01 0.0 1.0 38.6817305917 0.0 0.0
29 -16.184 -10.115 -10.115 0.01 0.0 1.0 38.6817305917 0.0 0.0
29 -14.161 -12.138 -10.115 0.01 0.0 1.0 38.6817305917 0.0 0.0
29 -16.184 -12.138 -8.092 0.01 0.0 1.0 38.6817305917 0.0 0.0
29 -14.161 -10.115 -8.092 0.01 0.0 1.0 38.6817305917 0.0 0.0
29 -16.184 -10.115 -6.069 0.01 0.0 1.0 38.6817305917 0.0 0.0
29 -14.161 -12.138 -6.069 0.01 0.0 1.0 38.6817305917 0.0 0.0
29 -16.184 -12.138 -4.046 0.01 0.0 1.0 38.6817305917 0.0 0.0
29 -14.161 -10.115 -4.046 0.01 0.0 1.0 38.6817305917 0.0 0.0
29 -16.184 -10.115 -2.023 0.01 0.0 1.0 38.6817305917 0.0 0.0
29 -14.161 -12.138 -2.023 0.01 0.0 1.0 38.6817305917 0.0 0.0
29 -16.184 -12.138 0.0 0.01 0.0 1.0 38.6817305917 0.0 0.0
29 -14.161 -10.115 0.0 0.01 0.0 1.0 38.6817305917 0.0 0.0
29 -16.184 -10.115 2.023 0.01 0.0 1.0 38.6817305917 0.0 0.0
29 -14.161 -12.138 2.023 0.01 0.0 1.0 38.6817305917 0.0 0.0
29 -16.184 -12.138 4.046 0.01 0.0 1.0 38.6817305917 0.0 0.0
29 -14.161 -10.115 4.046 0.01 0.0 1.0 38.6817305917 0.0 0.0
29 -16.184 -10.115 6.069 0.01 0.0 1.0 38.6817305917 0.0 0.0
29 -14.161 -12.138 6.069 0.01 0.0 1.0 38.6817305917 0.0 0.0
29 -16.184 -12.138 8.092 0.01 0.0 1.0 38.6817305917 0.0 0.0
29 -14.161 -10.115 8.092 0.01 0.0 1.0 38.6817305917 0.0 0.0
29 -16.184 -10.115 10.115 0.01 0.0 1.0 38.6817305917 0.0 0.0
29 -14.161 -12.138 10.115 0.01 0.0 1.0 38.6817305917 0.0 0.0
29 -16.184 -12.138 12.138 0.01 0.0 1.0 38.6817305917 0.0 0.0
29 -14.161 -10.115 12.138 0.01 0.0 1.0 38.6817305917 0.0 0.0
29 -16.184 -10.115 14.161 0.01 0.0 1.0 38.6817305917 0.0 0.0
29 -14.161 -12.138 14.161 0.01 0.0 1.0 38.6817305917 0.0 0.0
29 -16.184 -12.138 16.184 0.01 0.0 1.0 38.6817305917 0.0 0.0
29 -14.161 -10.115 16.184 0.01 0.0 1.0 38.6817305917 0.0 0.0
29 -16.184 -10.115 18.207 0.01 0.0 1.0 38.6817305917 0.0 0.0
29 -14.161 -12.138 18.207 0.01 0.0 1.0 38.6817305917 0.0 0.0
29 -16.184 -12.138 20.23 0.01 0.0 1.0 38.6817305917 0.0 0.0
29 -14.161 -10.115 20.23 0.01 0.0 1.0 38.6817305917 0.0 0.0
29 -16.184 -10.115 22.253 0.01 0.0 1.0 38.6817305917 0.0 0.0
29 -14.161 -12.138 22.253 0.01 0.0 1.0 38.6817305917 0.0 0.0
29 -16.184 -8.092 -16.184 0.01 0.0 1.0 38.6817305917 0.0 0.0
29 -14.161 -6.069 -16.184 0.01 0.0 1.0 38.6817305917 0.0 0.0
29 -16.184 -6.069 -14.161 0.01 0.0 1.0 38.6817305917 0.0 0.0
29 -14.161 -8.092 -14.161 0.01 0.0 1.0 38.6817305917 0.0 0.0
29 -16.184 -8.092 -12.138 0.01 0.0 1.0 38.6817305917 0.0 0.0
29 -14.161 -6.069 -12.138 0.01 0.0 1.0 38.6817305917 0.0 0.0
29 -16.184 -6.069 -10.115 0.01 0.0 1.0 38.6817305917 0.0 0.0
29 -14.161 -8.092 -10.115 0.01 0.0 1.0 38.6817305917 0.0 0.0
29 -16.184 -8.092 -8.092 0.01 0.0 1.0 38.6817305917 0.0 0.0
29 -14.161 -6.069 -8.092 0.01 0.0 1.0 38.6817305917 0.0 0.0
29 -16.184 -6.069 -6.069 0.01 0.0 1.0 38.6817305917 0.0 0.0
29 -14.161 -8.092 -6.069 0.01 0.0 1.0 38.6817305917 0.0 0.0
29 -16.184 -8.092 -4.046 0.01 0.0 1.0 38.6817305917 0.0 0.0
29 -14.161 -6.069 -4.046 0.01 0.0 1.0 38.6817305917 0.0 0.0
29 -16.184 -6.069 -2.023 0.01 0.0 1.0 38.6817305917 0.0 0.0
29 -14.161 -8.092 -2.023 0.01 0.0 1.0 38.6817305917 0.0 0.0
29 -16.184 -8.092 0.0 0.01 0.0 1.0 38.6817305917 0.0 0.0
29 -14.161 -6.069 0.0 0.01 0.0 1.0 38.6817305917 0.0 0.0
29 -16.184 -6.069 2.023 0.01 0.0 1.0 38.6817305917 0.0 0.0
29 -14.161 -8.092 2.023 0.01 0.0 1.0 38.6817305917 0.0 0.0
29 -16.184 -8.092 4.046 0.01 0.0 1.0 38.6817305917 0.0 0.0
29 -14.161 -6.069 4.046 0.01 0.0 1.0 38.6817305917 0.0 0.0
29 -16.184 -6.069 6.069 0.01 0.0 1.0 38.6817305917 0.0 0.0
29 -14.161 -8.092 6.069 0.01 0.0 1.0 38.6817305917 0.0 0.0
29 -16.184 -8.092 8.092 0.01 0.0 1.0 38.6817305917 0.0 0.0
29 -14.161 -6.069 8.092 0.01 0.0 1.0 38.6817305917 0.0 0.0
29 -16.184 -6.069 10.115 0.01 0.0 1.0 38.6817305917 0.0 0.0
29 -14.161 -8.092 10.115 0.01 0.0 1.0 38.6817305917 0.0 0.0
29 -16.184 -8.092 12.138 0.01 0.0 1.0 38.6817305917 0.0 0.0
29 -14.161 -6.069 12.138 0.01 0.0 1.0 38.6817305917 0.0 0.0
29 -16.184 -6.069 14.161 0.01 0.0 1.0 38.6817305917 0.0 0.0
29 -14.161 -8.092 14.161 0.01 0.0 1.0 38.6817305917 0.0 0.0
29 -16.184 -8.092 16.184 0.01 0.0 1.0 38.6817305917 0.0 0.0
29 -14.161 -6.069 16.184 0.01 0.0 1.0 38.6817305917 0.0 0.0
29 -16.184 -6.069 18.207 0.01 0.0 1.0 38.6817305917 0.0 0.0
29 -14.161 -8.092 18.207 0.01 0.0 1.0 38.6817305917 0.0 0.0
29 -16.184 -8.092 20.23 0.01 0.0 1.0 38.6817305917 0.0 0.0
29 -14.161 -6.069 20.23 0.01 0.0 1.0 38.6817305917 0.0 0.0
29 -16.184 -6.069 22.253 0.01 0.0 1.0 38.6817305917 0.0 0.0
29 -14.161 -8.092 22.253 0.01 0.0 1.0 38.6817305917 0.0 0.0
29 -16.184 -4.046 -16.184 0.01 0.0 1.0 38.6817305917 0.0 0.0
29 -14.161 -2.023 -16.184 0.01 0.0 1.0 38.6817305917 0.0 0.0
29 -16.184 -2.023 -14.161 0.01 0.0 1.0 38.6817305917 0.0 0.0
29 -14.161 -4.046 -14.161 0.01 0.0 1.0 38.6817305917 0.0 0.0
29 -16.184 -4.046 -12.138 0.01 0.0 1.0 38.6817305917 0.0 0.0
29 -14.161 -2.023 -12.138 0.01 0.0 1.0 38.6817305917 0.0 0.0
29 -16.184 -2.023 -10.115 0.01 0.0 1.0 38.6817305917 0.0 0.0
29 -14.161 -4.046 -10.115 0.01 0.0 1.0 38.6817305917 0.0 0.0
29 -16.184 -4.046 -8.092 0.01 0.0 1.0 38.6817305917 0.0 0.0
29 -14.161 -2.023 -8.092 0.01 0.0 1.0 38.6817305917 0.0 0.0
29 -16.184 -2.023 -6.069 0.01 0.0 1.0 38.6817305917 0.0 0.0
29 -14.161 -4.046 -6.069 0.01 0.0 1.0 38.6817305917 0.0 0.0
29 -16.184 -4.046 -4.046 0.01 0.0 1.0 38.6817305917 0.0 0.0
29 -14.161 -2.023 -4.046 0.01 0.0 1.0 38.6817305917 0.0 0.0
29 -16.184 -2.023 -2.023 0.01 0.0 1.0 38.6817305917 0.0 0.0
29 -14.161 -4.046 -2.023 0.01 0.0 1.0 38.6817305917 0.0 0.0
29 -16.184 -4.046 0.0 0.01 0.0 1.0 38.6817305917 0.0 0.0
29 -14.161 -2.023 0.0 0.01 0.0 1.0 38.6817305917 0.0 0.0
29 -16.184 -2.023 2.023 0.01 0.0 1.0 38.6817305917 0.0 0.0
29 -14.161 -4.046 2.023 0.01 0.0 1.0 38.6817305917 0.0 0.0
29 -16.184 -4.046 4.046 0.01 0.0 1.0 38.6817305917 0.0 0.0
29 -14.161 -2.023 4.046 0.01 0.0 1.0 38.6817305917 0.0 0.0
29 -16.184 -2.023 6.069 0.01 0.0 1.0 38.6817305917 0.0 0.0
29 -14.161 -4.046 6.069 0.01 0.0 1.0 38.6817305917 0.0 0.0
29 -16.184 -4.046 8.092 0.01 0.0 1.0 38.6817305917 0.0 0.0
29 -14.161 -2.023 8.092 0.01 0.0 1.0 38.6817305917 0.0 0.0
29 -16.184 -2.023 10.115 0.01 0.0 1.0 38.6817305917 0.0 0.0
29 -14.161 -4.046 10.115 0.01 0.0 1.0 38.6817305917 0.0 0.0
29 -16.184 -4.046 12.138 0.01 0.0 1.0 38.6817305917 0.0 0.0
29 -14.161 -2.023 12.138 0.01 0.0 1.0 38.6817305917 0.0 0.0
29 -16.184 -2.023 14.161 0.01 0.0 1.0 38.6817305917 0.0 0.0
29 -14.161 -4.046 14.161 0.01 0.0 1.0 38.6817305917 0.0 0.0
29 -16.184 -4.046 16.184 0.01 0.0 1.0 38.6817305917 0.0 0.0
29 -14.161 -2.023 16.184 0.01 0.0 1.0 38.6817305917 0.0 0.0
29 -16.184 -2.023 18.207 0.01 0.0 1.0 38.6817305917 0.0 0.0
29 -14.161 -4.046 18.207 0.01 0.0 1.0 38.6817305917 0.0 0.0
29 -16.184 -4.046 20.23 0.01 0.0 1.0 38.6817305917 0.0 0.0
29 -14.161 -2.023 20.23 0.01 0.0 1.0 38.6817305917 0.0 0.0
29 -16.184 -2.023 22.253 0.01 0.0 1.0 38.6817305917 0.0 0.0
29 -14.161 -4.046 22.253 0.01 0.0 1.0 38.6817305917 0.0 0.0
29 -16.184 0.0 -16.184 0.01 0.0 1.0 38.6817305917 0.0 0.0
29 -14.161 2.023 -16.184 0.01 0.0 1.0 38.6817305917 0.0 0.0
29 -16.184 2.023 -14.161 0.01 0.0 1.0 38.6817305917 0.0 0.0
29 -14.161 0.0 -14.161 0.01 0.0 1.0 38.6817305917 0.0 0.0
29 -16.184 0.0 -12.138 0.01 0.0 1.0 38.6817305917 0.0 0.0
29 -14.161 2.023 -12.138 0.01 0.0 1.0 38.6817305917 0.0 0.0
29 -16.184 2.023 -10.115 0.01 0.0 1.0 38.6817305917 0.0 0.0
29 -14.161 0.0 -10.115 0.01 0.0 1.0 38.6817305917 0.0 0.0
29 -16.184 0.0 -8.092 0.01 0.0 1.0 38.6817305917 0.0 0.0
29 -14.161 2.023 -8.092 0.01 0.0 1.0 38.6817305917 0.0 0.0
29 -16.184 2.023 -6.069 0.01 0.0 1.0 38.6817305917 0.0 0.0
29 -14.161 0.0 -6.069 0.01 0.0 1.0 38.6817305917 0.0 0.0
29 -16.184 0.0 -4.046 0.01 0.0 1.0 38.6817305917 0.0 0.0
29 -14.161 2.023 -4.046 0.01 0.0 1.0 38.6817305917 0.0 0.0
29 -16.184 2.023 -2.023 0.01 0.0 1.0 38.6817305917 0.0 0.0
29 -14.161 0.0 -2.023 0.01 0.0 1.0 38.6817305917 0.0 0.0
29 -16.184 0.0 0.0 0.01 0.0 1.0 38.6817305917 0.0 0.0
29 -14.161 2.023 0.0 0.01 0.0 1.0 38.6817305917 0.0 0.0
29 -16.184 2.023 2.023 0.01 0.0 1.0 38.6817305917 0.0 0.0
29 -14.161 0.0 2.023 0.01 0.0 1.0 38.6817305917 0.0 0.0
29 -16.184 0.0 4.046 0.01 0.0 1.0 38.6817305917 0.0 0.0
29 -14.161 2.023 4.046 0.01 0.0 1.0 38.6817305917 0.0 0.0
29 -16.184 2.023 6.069 0.01 0.0 1.0 38.6817305917 0.0 0.0
29 -14.161 0.0 6.069 0.01 0.0 1.0 38.6817305917 0.0 0.0
29 -16.184 0.0 8.092 0.01 0.0 1.0 38.6817305917 0.0 0.0
29 -14.161 2.023 8.092 0.01 0.0 1.0 38.6817305917 0.0 0.0
29 -16.184 2.023 10.115 0.01 0.0 1.0 38.6817305917 0.0 0.0
29 -14.161 0.0 10.115 0.01 0.0 1.0 38.6817305917 0.0 0.0
29 -16.184 0.0 12.138 0.01 0.0 1.0 38.6817305917 0.0 0.0
29 -14.161 2.023 12.138 0.01 0.0 1.0 38.6817305917 0.0 0.0
29 -16.184 2.023 14.161 0.01 0.0 1.0 38.6817305917 0.0 0.0
29 -14.161 0.0 14.161 0.01 0.0 1.0 38.6817305917 0.0 0.0
29 -16.184 0.0 16.184 0.01 0.0 1.0 38.6817305917 0.0 0.0
29 -14.161 2.023 16.184 0.01 0.0 1.0 38.6817305917 0.0 0.0
29 -16.184 2.023 18.207 0.01 0.0 1.0 38.6817305917 0.0 0.0
29 -14.161 0.0 18.207 0.01 0.0 1.0 38.6817305917 0.0 0.0
29 -16.184 0.0 20.23 0.01 0.0 1.0 38.6817305917 0.0 0.0
29 -14.161 2.023 20.23 0.01 0.0 1.0 38.6817305917 0.0 0.0
29 -16.184 2.023 22.253 0.01 0.0 1.0 38.6817305917 0.0 0.0
29 -14.161 0.0 22.253 0.01 0.0 1.0 38.6817305917 0.0 0.0
29 -16.184 4.046 -16.184 0.01 0.0 1.0 38.6817305917 0.0 0.0
29 -14.161 6.069 -16.184 0.01 0.0 1.0 38.6817305917 0.0 0.0
29 -16.184 6.069 -14.161 0.01 0.0 1.0 38.6817305917 0.0 0.0
29 -14.161 4.046 -14.161 0.01 0.0 1.0 38.6817305917 0.0 0.0
29 -16.184 4.046 -12.138 0.01 0.0 1.0 38.6817305917 0.0 0.0
29 -14.161 6.069 -12.138 0.01 0.0 1.0 38.6817305917 0.0 0.0
29 -16.184 6.069 -10.115 0.01 0.0 1.0 38.6817305917 0.0 0.0
29 -14.161 4.046 -10.115 0.01 0.0 1.0 38.6817305917 0.0 0.0
29 -16.184 4.046 -8.092 0.01 0.0 1.0 38.6817305917 0.0 0.0
29 -14.161 6.069 -8.092 0.01 0.0 1.0 38.6817305917 0.0 0.0
29 -16.184 6.069 -6.069 0.01 0.0 1.0 38.6817305917 0.0 0.0
29 -14.161 4.046 -6.069 0.01 0.0 1.0 38.6817305917 0.0 0.0
29 -16.184 4.046 -4.046 0.01 0.0 1.0 38.6817305917 0.0 0.0
29 -14.161 6.069 -4.046 0.01 0.0 1.0 38.6817305917 0.0 0.0
29 -16.184 6.069 -2.023 0.01 0.0 1.0 38.6817305917 0.0 0.0
29 -14.161 4.046 -2.023 0.01 0.0 1.0 38.6817305917 0.0 0.0
29 -16.184 4.046 0.0 0.01 0.0 1.0 38.6817305917 0.0 0.0
29 -14.161 6.069 0.0 0.01 0.0 1.0 38.6817305917 0.0 0.0
29 -16.184 6.069 2.023 0.01 0.0 1.0 38.6817305917 0.0 0.0
29 -14.161 4.046 2.023 0.01 0.0 1.0 38.6817305917 0.0 0.0
29 -16.184 4.046 4.046 0.01 0.0 1.0 38.6817305917 0.0 0.0
29 -14.161 6.069 4.046 0.01 0.0 1.0 38.6817305917 0.0 0.0
29 -16.184 6.069 6.069 0.01 0.0 1.0 38.6817305917 0.0 0.0
29 -14.161 4.046 6.069 0.01 0.0 1.0 38.6817305917 0.0 0.0
29 -16.184 4.046 8.092 0.01 0.0 1.0 38.6817305917 0.0 0.0
29 -14.161 6.069 8.092 0.01 0.0 1.0 38.6817305917 0.0 0.0
29 -16.184 6.069 10.115 0.01 0.0 1.0 38.6817305917 0.0 0.0
29 -14.161 4.046 10.115 0.01 0.0 1.0 38.6817305917 0.0 0.0
29 -16.184 4.046 12.138 0.01 0.0 1.0 38.6817305917 0.0 0.0
29 -14.161 6.069 12.138 0.01 0.0 1.0 38.6817305917 0.0 0.0
29 -16.184 6.069 14.161 0.01 0.0 1.0 38.6817305917 0.0 0.0
29 -14.161 4.046 14.161 0.01 0.0 1.0 38.6817305917 0.0 0.0
29 -16.184 4.046 16.184 0.01 0.0 1.0 38.6817305917 0.0 0.0
29 -14.161 6.069 16.184 0.01 0.0 1.0 38.6817305917 0.0 0.0
29 -16.184 6.069 18.207 0.01 0.0 1.0 38.6817305917 0.0 0.0
29 -14.161 4.046 18.207 0.01 0.0 1.0 38.6817305917 0.0 0.0
29 -16.184 4.046 20.23 0.01 0.0 1.0 38.6817305917 0.0 0.0
29 -14.161 6.069 20.23 0.01 0.0 1.0 38.6817305917 0.0 0.0
29 -16.184 6.069 22.253 0.01 0.0 1.0 38.6817305917 0.0 0.0
29 -14.161 4.046 22.253 0.01 0.0 1.0 38.6817305917 0.0 0.0
29 -16.184 8.092 -16.184 0.01 0.0 1.0 38.6817305917 0.0 0.0
29 -14.161 10.115 -16.184 0.01 0.0 1.0 38.6817305917 0.0 0.0
29 -16.184 10.115 -14.161 0.01 0.0 1.0 38.6817305917 0.0 0.0
29 -14.161 8.092 -14.161 0.01 0.0 1.0 38.6817305917 0.0 0.0
29 -16.184 8.092 -12.138 0.01 0.0 1.0 38.6817305917 0.0 0.0
29 -14.161 10.115 -12.138 0.01 0.0 1.0 38.6817305917 0.0 0.0
29 -16.184 10.115 -10.115 0.01 0.0 1.0 38.6817305917 0.0 0.0
29 -14.161 8.092 -10.115 0.01 0.0 1.0 38.6817305917 0.0 0.0
29 -16.184 8.092 -8.092 0.01 0.0 1.0 38.6817305917 0.0 0.0
29 -14.161 10.115 -8.092 0.01 0.0 1.0 38.6817305917 0.0 0.0
29 -16.184 10.115 -6.069 0.01 0.0 1.0 38.6817305917 0.0 0.0
29 -14.161 8.092 -6.069 0.01 0.0 1.0 38.6817305917 0.0 0.0
29 -16.184 8.092 -4.046 0.01 0.0 1.0 38.6817305917 0.0 0.0
29 -14.161 10.115 -4.046 0.01 0.0 1.0 38.6817305917 0.0 0.0
29 -16.184 10.115 -2.023 0.01 0.0 1.0 38.6817305917 0.0 0.0
29 -14.161 8.092 -2.023 0.01 0.0 1.0 38.6817305917 0.0 0.0
29 -16.184 8.092 0.0 0.01 0.0 1.0 38.6817305917 0.0 0.0
29 -14.161 10.115 0.0 0.01 0.0 1.0 38.6817305917 0.0 0.0
29 -16.184 10.115 2.023 0.01 0.0 1.0 38.6817305917 0.0 0.0
29 -14.161 8.092 2.023 0.01 0.0 1.0 38.6817305917 0.0 0.0
29 -16.184 8.092 4.046 0.01 0.0 1.0 38.6817305917 0.0 0.0
29 -14.161 10.115 4.046 0.01 0.0 1.0 38.6817305917 0.0 0.0
29 -16.184 10.115 6.069 0.01 0.0 1.0 38.6817305917 0.0 0.0
29 -14.161 8.092 6.069 0.01 0.0 1.0 38.6817305917 0.0 0.0
29 -16.184 8.092 8.092 0.01 0.0 1.0 38.6817305917 0.0 0.0
29 -14.161 10.115 8.092 0.01 0.0 1.0 38.6817305917 0.0 0.0
29 -16.184 10.115 10.115 0.01 0.0 1.0 38.6817305917 0.0 0.0
29 -14.161 8.092 10.115 0.01 0.0 1.0 38.6817305917 0.0 0.0
29 -16.184 8.092 12.138 0.01 0.0 1.0 38.6817305917 0.0 0.0
29 -14.161 10.115 12.138 0.01 0.0 1.0 38.6817305917 0.0 0.0
29 -16.184 10.115 14.161 0.01 0.0 1.0 38.6817305917 0.0 0.0
29 -14.161 8.092 14.161 0.01 0.0 1.0 38.6817305917 0.0 0.0
29 -16.184 8.092 16.184 0.01 0.0 1.0 38.6817305917 0.0 0.0
29 -14.161 10.115 16.184 0.01 0.0 1.0 38.6817305917 0.0 0.0
29 -16.184 10.115 18.207 0.01 0.0 1.0 38.6817305917 0.0 0.0
29 -14.161 8.092 18.207 0.01 0.0 1.0 38.6817305917 0.0 0.0
29 -16.184 8.092 20.23 0.01 0.0 1.0 38.6817305917 0.0 0.0
29 -14.161 10.115 20.23 0.01 0.0 1.0 38.6817305917 0.0 0.0
29 -16.184 10.115 22.253 0.01 0.0 1.0 38.6817305917 0.0 0.0
29 -14.161 8.092 22.253 0.01 0.0 1.0 38.6817305917 0.0 0.0
29 -16.184 12.138 -16.184 0.01 0.0 1.0 38.6817305917 0.0 0.0
29 -14.161 14.161 -16.184 0.01 0.0 1.0 38.6817305917 0.0 0.0
29 -16.184 14.161 -14.161 0.01 0.0 1.0 38.6817305917 0.0 0.0
29 -14.161 12.138 -14.161 0.01 0.0 1.0 38.6817305917 0.0 0.0
29 -16.184 12.138 -12.138 0.01 0.0 1.0 38.6817305917 0.0 0.0
29 -14.161 14.161 -12.138 0.01 0.0 1.0 38.6817305917 0.0 0.0
29 -16.184 14.161 -10.115 0.01 0.0 1.0 38.6817305917 0.0 0.0
29 -14.161 12.138 -10.115 0.01 0.0 1.0 38.6817305917 0.0 0.0
29 -16.184 12.138 -8.092 0.01 0.0 1.0 38.6817305917 0.0 0.0
29 -14.161 14.161 -8.092 0.01 0.0 1.0 38.6817305917 0.0 0.0
29 -16.184 14.161 -6.069 0.01 0.0 1.0 38.6817305917 0.0 0.0
29 -14.161 12.138 -6.069 0.01 0.0 1.0 38.6817305917 0.0 0.0
29 -16.184 12.138 -4.046 0.01 0.0 1.0 38.6817305917 0.0 0.0
29 -14.161 14.161 -4.046 0.01 0.0 1.0 38.6817305917 0.0 0.0
29 -16.184 14.161 -2.023 0.01 0.0 1.0 38.6817305917 0.0 0.0
29 -14.161 12.138 -2.023 0.01 0.0 1.0 38.6817305917 0.0 0.0
29 -16.184 12.138 0.0 0.01 0.0 1.0 38.6817305917 0.0 0.0
29 -14.161 14.161 0.0 0.01 0.0 1.0 38.6817305917 0.0 0.0
29 -16.184 14.161 2.023 0.01 0.0 1.0 38.6817305917 0.0 0.0
29 -14.161 12.138 2.023 0.01 0.0 1.0 38.6817305917 0.0 0.0
29 -16.184 12.138 4.046 0.01 0.0 1.0 38.6817305917 0.0 0.0
29 -14.161 14.161 4.046 0.01 0.0 1.0 38.6817305917 0.0 0.0
29 -16.184 14.161 6.069 0.01 0.0 1.0 38.6817305917 0.0 0.0
29 -14.161 12.138 6.069 0.01 0.0 1.0 38.6817305917 0.0 0.0
29 -16.184 12.138 8.092 0.01 0.0 1.0 38.6817305917 0.0 0.0
29 -14.161 14.161 8.092 0.01 0.0 1.0 38.6817305917 0.0 0.0
29 -16.184 14.161 10.115 0.01 0.0 1.0 38.6817305917 0.0 0.0
29 -14.161 12.138 10.115 0.01 0.0 1.0 38.6817305917 0.0 0.0
29 -16.184 12.138 12.138 0.01 0.0 1.0 38.6817305917 0.0 0.0
29 -14.161 14.161 12.138 0.01 0.0 1.0 38.6817305917 0.0 0.0
29 -16.184 14.161 14.161 0.01 0.0 1.0 38.6817305917 0.0 0.0
29 -14.161 12.138 14.161 0.01 0.0 1.0 38.6817305917 0.0 0.0
29 -16.184 12.138 16.184 0.01 0.0 1.0 38.6817305917 0.0 0.0
29 -14.161 14.161 16.184 0.01 0.0 1.0 38.6817305917 0.0 0.0
29 -16.184 14.161 18.207 0.01 0.0 1.0 38.6817305917 0.0 0.0
29 -14.161 12.138 18.207 0.01 0.0 1.0 38.6817305917 0.0 0.0
29 -16.184 12.138 20.23 0.01 0.0 1.0 38.6817305917 0.0 0.0
29 -14.161 14.161 20.23 0.01 0.0 1.0 38.6817305917 0.0 0.0
29 -16.184 14.161 22.253 0.01 0.0 1.0 38.6817305917 0.0 0.0
29 -14.161 12.138 22.253 0.01 0.0 1.0 38.6817305917 0.0 0.0
29 -16.184 16.184 -16.184 0.01 0.0 1.0 38.6817305917 0.0 0.0
29 -14.161 18.207 -16.184 0.01 0.0 1.0 38.6817305917 0.0 0.0
29 -16.184 18.207 -14.161 0.01 0.0 1.0 38.6817305917 0.0 0.0
29 -14.161 16.184 -14.161 0.01 0.0 1.0 38.6817305917 0.0 0.0
29 -16.184 16.184 -12.138 0.01 0.0 1.0 38.6817305917 0.0 0.0
29 -14.161 18.207 -12.138 0.01 0.0 1.0 38.6817305917 0.0 0.0
29 -16.184 18.207 -10.115 0.01 0.0 1.0 38.6817305917 0.0 0.0
29 -14.161 16.184 -10.115 0.01 0.0 1.0 38.6817305917 0.0 0.0
29 -16.184 16.184 -8.092 0.01 0.0 1.0 38.6817305917 0.0 0.0
29 -14.161 18.207 -8.092 0.01 0.0 1.0 38.6817305917 0.0 0.0
29 -16.184 18.207 -6.069 0.01 0.0 1.0 38.6817305917 0.0 0.0
29 -14.161 16.184 -6.069 0.01 0.0 1.0 38.6817305917 0.0 0.0
29 -16.184 16.184 -4.046 0.01 0.0 1.0 38.6817305917 0.0 0.0
29 -14.161 18.207 -4.046 0.01 0.0 1.0 38.6817305917 0.0 0.0
29 -16.184 18.207 -2.023 0.01 0.0 1.0 38.6817305917 0.0 0.0
29 -14.161 16.184 -2.023 0.01 0.0 1.0 38.6817305917 0.0 0.0
29 -16.184 16.184 0.0 0.01 0.0 1.0 38.6817305917 0.0 0.0
29 -14.161 18.207 0.0 0.01 0.0 1.0 38.6817305917 0.0 0.0
29 -16.184 18.207 2.023 0.01 0.0 1.0 38.6817305917 0.0 0.0
29 -14.161 16.184 2.023 0.01 0.0 1.0 38.6817305917 0.0 0.0
29 -16.184 16.184 4.046 0.01 0.0 1.0 38.6817305917 0.0 0.0
29 -14.161 18.207 4.046 0.01 0.0 1.0 38.6817305917 0.0 0.0
29 -16.184 18.207 6.069 0.01 0.0 1.0 38.6817305917 0.0 0.0
29 -14.161 16.184 6.069 0.01 0.0 1.0 38.6817305917 0.0 0.0
29 -16.184 16.184 8.092 0.01 0.0 1.0 38.6817305917 0.0 0.0
29 -14.161 18.207 8.092 0.01 0.0 1.0 38.6817305917 0.0 0.0
29 -16.184 18.207 10.115 0.01 0.0 1.0 38.6817305917 0.0 0.0
29 -14.161 16.184 10.115 0.01 0.0 1.0 38.6817305917 0.0 0.0
29 -16.184 16.184 12.138 0.01 0.0 1.0 38.6817305917 0.0 0.0
29 -14.161 18.207 12.138 0.01 0.0 1.0 38.6817305917 0.0 0.0
29 -16.184 18.207 14.161 0.01 0.0 1.0 38.6817305917 0.0 0.0
29 -14.161 16.184 14.161 0.01 0.0 1.0 38.6817305917 0.0 0.0
29 -16.184 16.184 16.184 0.01 0.0 1.0 38.6817305917 0.0 0.0
29 -14.161 18.207 16.184 0.01 0.0 1.0 38.6817305917 0.0 0.0
29 -16.184 18.207 18.207 0.01 0.0 1.0 38.6817305917 0.0 0.0
29 -14.161 16.184 18.207 0.01 0.0 1.0 38.6817305917 0.0 0.0
29 -16.184 16.184 20.23 0.01 0.0 1.0 38.6817305917 0.0 0.0
29 -14.161 18.207 20.23 0.01 0.0 1.0 38.6817305917 0.0 0.0
29 -16.184 18.207 22.253 0.01 0.0 1.0 38.6817305917 0.0 0.0
29 -14.161 16.184 22.253 0.01 0.0 1.0 38.6817305917 0.0 0.0
29 -16.184 20.23 -16.184 0.01 0.0 1.0 38.6817305917 0.0 0.0
29 -14.161 22.253 -16.184 0.01 0.0 1.0 38.6817305917 0.0 0.0
29 -16.184 22.253 -14.161 0.01 0.0 1.0 38.6817305917 0.0 0.0
29 -14.161 20.23 -14.161 0.01 0.0 1.0 38.6817305917 0.0 0.0
29 -16.184 20.23 -12.138 0.01 0.0 1.0 38.6817305917 0.0 0.0
29 -14.161 22.253 -12.138 0.01 0.0 1.0 38.6817305917 0.0 0.0
29 -16.184 22.253 -10.115 0.01 0.0 1.0 38.6817305917 0.0 0.0
29 -14.161 20.23 -10.115 0.01 0.0 1.0 38.6817305917 0.0 0.0
29 -16.184 20.23 -8.092 0.01 0.0 1.0 38.6817305917 0.0 0.0
29 -14.161 22.253 -8.092 0.01 0.0 1.0 38.6817305917 0.0 0.0
29 -16.184 22.253 -6.069 0.01 0.0 1.0 38.6817305917 0.0 0.0
29 -14.161 20.23 -6.069 0.01 0.0 1.0 38.6817305917 0.0 0.0
29 -16.184 20.23 -4.046 0.01 0.0 1.0 38.6817305917 0.0 0.0
29 -14.161 22.253 -4.046 0.01 0.0 1.0 38.6817305917 0.0 0.0
29 -16.184 22.253 -2.023 0.01 0.0 1.0 38.6817305917 0.0 0.0
29 -14.161 20.23 -2.023 0.01 0.0 1.0 38.6817305917 0.0 0.0
29 -16.184 20.23 0.0 0.01 0.0 1.0 38.6817305917 0.0 0.0
29 -14.161 22.253 0.0 0.01 0.0 1.0 38.6817305917 0.0 0.0
29 -16.184 22.253 2.023 0.01 0.0 1.0 38.6817305917 0.0 0.0
29 -14.161 20.23 2.023 0.01 0.0 1.0 38.6817305917 0.0 0.0
29 -16.184 20.23 4.046 0.01 0.0 1.0 38.6817305917 0.0 0.0
29 -14.161 22.253 4.046 0.01 0.0 1.0 38.6817305917 0.0 0.0
29 -16.184 22.253 6.069 0.01 0.0 1.0 38.6817305917 0.0 0.0
29 -14.161 20.23 6.069 0.01 0.0 1.0 38.6817305917 0.0 0.0
29 -16.184 20.23 8.092 0.01 0.0 1.0 38.6817305917 0.0 0.0
29 -14.161 22.253 8.092 0.01 0.0 1.0 38.6817305917 0.0 0.0
29 -16.184 22.253 10.115 0.01 0.0 1.0 38.6817305917 0.0 0.0
29 -14.161 20.23 10.115 0.01 0.0 1.0 38.6817305917 0.0 0.0
29 -16.184 20.23 12.138 0.01 0.0 1.0 38.6817305917 0.0 0.0
29 -14.161 22.253 12.138 0.01 0.0 1.0 38.6817305917 0.0 0.0
29 -16.184 22.253 14.161 0.01 0.0 1.0 38.6817305917 0.0 0.0
29 -14.161 20.23 14.161 0.01 0.0 1.0 38.6817305917 0.0 0.0
29 -16.184 20.23 16.184 0.01 0.0 1.0 38.6817305917 0.0 0.0
29 -14.161 22.253 16.184 0.01 0.0 1.0 38.6817305917 0.0 0.0
29 -16.184 22.253 18.207 0.01 0.0 1.0 38.6817305917 0.0 0.0
29 -14.161 20.23 18.207 0.01 0.0 1.0 38.6817305917 0.0 0.0
29 -16.184 20.23 20.23 0.01 0.0 1.0 38.6817305917 0.0 0.0
29 -14.161 22.253 20.23 0.01 0.0 1.0 38.6817305917 0.0 0.0
29 -16.184 22.253 22.253 0.01 0.0 1.0 38.6817305917 0.0 0.0
29 -14.161 20.23 22.253 0.01 0.0 1.0 38.6817305917 0.0 0.0
29 -12.138 -16.184 -16.184 0.01 0.0 1.0 38.6817305917 0.0 0.0
29 -10.115 -14.161 -16.184 0.01 0.0 1.0 38.6817305917 0.0 0.0
29 -12.138 -14.161 -14.161 0.01 0.0 1.0 38.6817305917 0.0 0.0
29 -10.115 -16.184 -14.161 0.01 0.0 1.0 38.6817305917 0.0 0.0
29 -12.138 -16.184 -12.138 0.01 0.0 1.0 38.6817305917 0.0 0.0
29 -10.115 -14.161 -12.138 0.01 0.0 1.0 38.6817305917 0.0 0.0
29 -12.138 -14.161 -10.115 0.01 0.0 1.0 38.6817305917 0.0 0.0
29 -10.115 -16.184 -10.115 0.01 0.0 1.0 38.6817305917 0.0 0.0
29 -12.138 -16.184 -8.092 0.01 0.0 1.0 38.6817305917 0.0 0.0
29 -10.115 -14.161 -8.092 0.01 0.0 1.0 38.6817305917 0.0 0.0
29 -12.138 -14.161 -6.069 0.01 0.0 1.0 38.6817305917 0.0 0.0
29 -10.115 -16.184 -6.069 0.01 0.0 1.0 38.6817305917 0.0 0.0
29 -12.138 -16.184 -4.046 0.01 0.0 1.0 38.6817305917 0.0 0.0
29 -10.115 -14.161 -4.046 0.01 0.0 1.0 38.6817305917 0.0 0.0
29 -12.138 -14.161 -2.023 0.01 0.0 1.0 38.6817305917 0.0 0.0
29 -10.115 -16.184 -2.023 0.01 0.0 1.0 38.6817305917 0.0 0.0
29 -12.138 -16.184 0.0 0.01 0.0 1.0 38.6817305917 0.0 0.0
29 -10.115 -14.161 0.0 0.01 0.0 1.0 38.6817305917 0.0 0.0
29 -12.138 -14.161 2.023 0.01 0.0 1.0 38.6817305917 0.0 0.0
29 -10.115 -16.184 2.023 0.01 0.0 1.0 38.6817305917 0.0 0.0
29 -12.138 -16.184 4.046 0.01 0.0 1.0 38.6817305917 0.0 0.0
29 -10.115 -14.161 4.046 0.01 0.0 1.0 38.6817305917 0.0 0.0
29 -12.138 -14.161 6.069 0.01 0.0 1.0 38.6817305917 0.0 0.0
29 -10.115 -16.184 6.069 0.01 0.0 1.0 38.6817305917 0.0 0.0
29 -12.138 -16.184 8.092 0.01 0.0 1.0 38.6817305917 0.0 0.0
29 -10.115 -14.161 8.092 0.01 0.0 1.0 38.6817305917 0.0 0.0
29 -12.138 -14.161 10.115 0.01 0.0 1.0 38.6817305917 0.0 0.0
29 -10.115 -16.184 10.115 0.01 0.0 1.0 38.6817305917 0.0 0.0
29 -12.138 -16.184 12.138 0.01 0.0 1.0 38.6817305917 0.0 0.0
29 -10.115 -14.161 12.138 0.01 0.0 1.0 38.6817305917 0.0 0.0
29 -12.138 -14.161 14.161 0.01 0.0 1.0 38.6817305917 0.0 0.0
29 -10.115 -16.184 14.161 0.01 0.0 1.0 38.6817305917 0.0 0.0
29 -12.138 -16.184 16.184 0.01 0.0 1.0 38.6817305917 0.0 0.0
29 -10.115 -14.161 16.184 0.01 0.0 1.0 38.6817305917 0.0 0.0
29 -12.138 -14.161 18.207 0.01 0.0 1.0 38.6817305917 0.0 0.0
29 -10.115 -16.184 18.207 0.01 0.0 1.0 38.6817305917 0.0 0.0
29 -12.138 -16.184 20.23 0.01 0.0 1.0 38.6817305917 0.0 0.0
29 -10.115 -14.161 20.23 0.01 0.0 1.0 38.6817305917 0.0 0.0
29 -12.138 -14.161 22.253 0.01 0.0 1.0 38.6817305917 0.0 0.0
29 -10.115 -16.184 22.253 0.01 0.0 1.0 38.6817305917 0.0 0.0
29 -12.138 -12.138 -16.184 0.01 0.0 1.0 38.6817305917 0.0 0.0
29 -10.115 -10.115 -16.184 0.01 0.0 1.0 38.6817305917 0.0 0.0
29 -12.138 -10.115 -14.161 0.01 0.0 1.0 38.6817305917 0.0 0.0
29 -10.115 -12.138 -14.161 0.01 0.0 1.0 38.6817305917 0.0 0.0
29 -12.138 -12.138 -12.138 0.01 0.0 1.0 38.6817305917 0.0 0.0
29 -10.115 -10.115 -12.138 0.01 0.0 1.0 38.6817305917 0.0 0.0
29 -12.138 -10.115 -10.115 0.01 0.0 1.0 38.6817305917 0.0 0.0
29 -10.115 -12.138 -10.115 0.01 0.0 1.0 38.6817305917 0.0 0.0
29 -12.138 -12.138 -8.092 0.01 0.0 1.0 38.6817305917 0.0 0.0
29 -10.115 -10.115 -8.092 0.01 0.0 1.0 38.6817305917 0.0 0.0
29 -12.138 -10.115 -6.069 0.01 0.0 1.0 38.6817305917 0.0 0.0
29 -10.115 -12.138 -6.069 0.01 0.0 1.0 38.6817305917 0.0 0.0
29 -12.138 -12.138 -4.046 0.01 0.0 1.0 38.6817305917 0.0 0.0
29 -10.115 -10.115 -4.046 0.01 0.0 1.0 38.6817305917 0.0 0.0
29 -12.138 -10.115 -2.023 0.01 0.0 1.0 38.6817305917 0.0 0.0
29 -10.115 -12.138 -2.023 0.01 0.0 1.0 38.6817305917 0.0 0.0
29 -12.138 -12.138 0.0 0.01 0.0 1.0 38.6817305917 0.0 0.0
29 -10.115 -10.115 0.0 0.01 0.0 1.0 38.6817305917 0.0 0.0
29 -12.138 -10.115 2.023 0.01 0.0 1.0 38.6817305917 0.0 0.0
29 -10.115 -12.138 2.023 0.01 0.0 1.0 38.6817305917 0.0 0.0
29 -12.138 -12.138 4.046 0.01 0.0 1.0 38.6817305917 0.0 0.0
29 -10.115 -10.115 4.046 0.01 0.0 1.0 38.6817305917 0.0 0.0
29 -12.138 -10.115 6.069 0.01 0.0 1.0 38.6817305917 0.0 0.0
29 -10.115 -12.138 6.069 0.01 0.0 1.0 38.6817305917 0.0 0.0
29 -12.138 -12.138 8.092 0.01 0.0 1.0 38.6817305917 0.0 0.0
29 -10.115 -10.115 8.092 0.01 0.0 1.0 38.6817305917 0.0 0.0
29 -12.138 -10.115 10.115 0.01 0.0 1.0 38.6817305917 0.0 0.0
29 -10.115 -12.138 10.115 0.01 0.0 1.0 38.6817305917 0.0 0.0
29 -12.138 -12.138 12.138 0.01 0.0 1.0 38.6817305917 0.0 0.0
29 -10.115 -10.115 12.138 0.01 0.0 1.0 38.6817305917 0.0 0.0
29 -12.138 -10.115 14.161 0.01 0.0 1.0 38.6817305917 0.0 0.0
29 -10.115 -12.138 14.161 0.01 0.0 1.0 38.6817305917 0.0 0.0
29 -12.138 -12.138 16.184 0.01 0.0 1.0 38.6817305917 0.0 0.0
29 -10.115 -10.115 16.184 0.01 0.0 1.0 38.6817305917 0.0 0.0
29 -12.138 -10.115 18.207 0.01 0.0 1.0 38.6817305917 0.0 0.0
29 -10.115 -12.138 18.207 0.01 0.0 1.0 38.6817305917 0.0 0.0
29 -12.138 -12.138 20.23 0.01 0.0 1.0 38.6817305917 0.0 0.0
29 -10.115 -10.115 20.23 0.01 0.0 1.0 38.6817305917 0.0 0.0
29 -12.138 -10.115 22.253 0.01 0.0 1.0 38.6817305917 0.0 0.0
29 -10.115 -12.138 22.253 0.01 0.0 1.0 38.6817305917 0.0 0.0
29 -12.138 -8.092 -16.184 0.01 0.0 1.0 38.6817305917 0.0 0.0
29 -10.115 -6.069 -16.184 0.01 0.0 1.0 38.6817305917 0.0 0.0
29 -12.138 -6.069 -14.161 0.01 0.0 1.0 38.6817305917 0.0 0.0
29 -10.115 -8.092 -14.161 0.01 0.0 1.0 38.6817305917 0.0 0.0
29 -12.138 -8.092 -12.138 0.01 0.0 1.0 38.6817305917 0.0 0.0
29 -10.115 -6.069 -12.138 0.01 0.0 1.0 38.6817305917 0.0 0.0
29 -12.138 -6.069 -10.115 0.01 0.0 1.0 38.6817305917 0.0 0.0
29 -10.115 -8.092 -10.115 0.01 0.0 1.0 38.6817305917 0.0 0.0
29 -12.138 -8.092 -8.092 0.01 0.0 1.0 38.6817305917 0.0 0.0
29 -10.115 -6.069 -8.092 0.01 0.0 1.0 38.6817305917 0.0 0.0
29 -12.138 -6.069 -6.069 0.01 0.0 1.0 38.6817305917 0.0 0.0
29 -10.115 -8.092 -6.069 0.01 0.0 1.0 38.6817305917 0.0 0.0
29 -12.138 -8.092 -4.046 0.01 0.0 1.0 38.6817305917 0.0 0.0
29 -10.115 -6.069 -4.046 0.01 0.0 1.0 38.6817305917 0.0 0.0
29 -12.138 -6.069 -2.023 0.01 0.0 1.0 38.6817305917 0.0 0.0
29 -10.115 -8.092 -2.023 0.01 0.0 1.0 38.6817305917 0.0 0.0
29 -12.138 -8.092 0.0 0.01 0.0 1.0 38.6817305917 0.0 0.0