22
Lattice="6.052 0.0 0.0 0.0 6.052 0.0 0.0 0.0 4.878" u="0.158" Properties=species:S:1:pos:R:3 Time=0.0
Cu    0         0    1.2150
Cu    6.0400         0    1.2150
Cu         0    6.0400    1.2150
Cu    6.0400    6.0400    1.2150
Cu    3.0200    3.0200    1.2150
Cu         0         0    3.6450
Cu    6.0400         0    3.6450
Cu         0    6.0400    3.6450
Cu    6.0400    6.0400    3.6450
Cu    3.0200    3.0200    3.6450
Al    0.9543    3.9743         0
Al    2.0657    0.9543         0
Al    5.0857    2.0657         0
Al    3.9743    5.0857         0
Al    0.9543    2.0657    2.4300
Al    3.9743    0.9543    2.4300
Al    5.0857    3.9743    2.4300
Al    2.0657    5.0857    2.4300
Al    0.9543    3.9743    4.8600
Al    2.0657    0.9543    4.8600
Al    5.0857    2.0657    4.8600
Al    3.9743    5.0857    4.8600