14
#Lattice="3.615 0.0 0.0 0.0 3.615 0.0 0.0 0.0 3.615" u="0.158" Properties=species:S:1:pos:R:3 Time=0.0
Cu    0.0000    0.0000    0
Cu    3.615      0         0
Cu    3.615      3.615      0
Cu    0         3.615      0
Cu    0.0000    0.0000    3.615
Cu    3.615      0         3.615
Cu    3.615      3.615      3.615
Cu    0         3.615      3.615
Cu    1.8075     1.8075     0     
Cu    1.8075     1.8075     3.615
Cu    1.8075     0         1.8075
Cu    3.615      1.8075     1.8075     
Cu    0         1.8075     1.8075
Cu    1.8075     3.615      1.8075
