14
Lattice="4.05 0.0 0.0 0.0 4.05 0.0 0.0 0.0 4.05" u="0.158" Properties=species:S:1:pos:R:3 Time=0.0
Cu    0.0000    0.0000    0
Cu    4.05      0         0
Cu    4.05      4.05      0
Cu    0         4.05      0
Cu    0.0000    0.0000    4.05
Cu    4.05      0         4.05
Cu    4.05      4.05      4.05
Cu    0         4.05      4.05
Cu    2.025     2.025     0     
Cu    2.025     2.025     4.05
Cu    2.025     0         2.025
Cu    4.05      2.025     2.025     
Cu    0         2.025     2.025
Cu    2.025     4.05      2.025