ITEM: TIMESTEP
0
ITEM: NUMBER OF ATOMS
3024
ITEM: BOX BOUNDS pp pp pp
-8.1 16.2
-8.1 16.2
-8.1 16.2
ITEM: ATOMS type x y z Stdvq Molarfraction chemicalmultp thermalmultp chemicalmultpbcc thermalmultpbcc
1 -8.1 -8.1 -8.1 0.01 0.0 0.0 38.6817305917 0 0
1 -4.05 -8.1 -8.1 0.01 0.0 0.0 38.6817305917 0 0
1 -4.05 -4.05 -8.1 0.01 0.0 0.0 38.6817305917 0 0
1 -8.1 -4.05 -8.1 0.01 0.0 0.0 38.6817305917 0 0
1 -8.1 -8.1 -4.05 0.01 0.0 0.0 38.6817305917 0 0
1 -4.05 -8.1 -4.05 0.01 0.0 0.0 38.6817305917 0 0
1 -4.05 -4.05 -4.05 0.01 0.0 0.0 38.6817305917 0 0
1 -8.1 -4.05 -4.05 0.01 0.0 0.0 38.6817305917 0 0
1 -6.075 -6.075 -8.1 0.01 0.0 0.0 38.6817305917 0 0
1 -6.075 -6.075 -4.05 0.01 0.0 0.0 38.6817305917 0 0
1 -6.075 -8.1 -6.075 0.01 0.0 0.0 38.6817305917 0 0
1 -4.05 -6.075 -6.075 0.01 0.0 0.0 38.6817305917 0 0
1 -8.1 -6.075 -6.075 0.01 0.0 0.0 38.6817305917 0 0
1 -6.075 -4.05 -6.075 0.01 0.0 0.0 38.6817305917 0 0
1 -8.1 -8.1 -4.05 0.01 0.0 0.0 38.6817305917 0 0
1 -4.05 -8.1 -4.05 0.01 0.0 0.0 38.6817305917 0 0
1 -4.05 -4.05 -4.05 0.01 0.0 0.0 38.6817305917 0 0
1 -8.1 -4.05 -4.05 0.01 0.0 0.0 38.6817305917 0 0
1 -8.1 -8.1 0.0 0.01 0.0 0.0 38.6817305917 0 0
1 -4.05 -8.1 0.0 0.01 0.0 0.0 38.6817305917 0 0
1 -4.05 -4.05 0.0 0.01 0.0 0.0 38.6817305917 0 0
1 -8.1 -4.05 0.0 0.01 0.0 0.0 38.6817305917 0 0
1 -6.075 -6.075 -4.05 0.01 0.0 0.0 38.6817305917 0 0
1 -6.075 -6.075 0.0 0.01 0.0 0.0 38.6817305917 0 0
1 -6.075 -8.1 -2.025 0.01 0.0 0.0 38.6817305917 0 0
1 -4.05 -6.075 -2.025 0.01 0.0 0.0 38.6817305917 0 0
1 -8.1 -6.075 -2.025 0.01 0.0 0.0 38.6817305917 0 0
1 -6.075 -4.05 -2.025 0.01 0.0 0.0 38.6817305917 0 0
1 -8.1 -4.05 -8.1 0.01 0.0 0.0 38.6817305917 0 0
1 -4.05 -4.05 -8.1 0.01 0.0 0.0 38.6817305917 0 0
1 -4.05 0.0 -8.1 0.01 0.0 0.0 38.6817305917 0 0
1 -8.1 0.0 -8.1 0.01 0.0 0.0 38.6817305917 0 0
1 -8.1 -4.05 -4.05 0.01 0.0 0.0 38.6817305917 0 0
1 -4.05 -4.05 -4.05 0.01 0.0 0.0 38.6817305917 0 0
1 -4.05 0.0 -4.05 0.01 0.0 0.0 38.6817305917 0 0
1 -8.1 0.0 -4.05 0.01 0.0 0.0 38.6817305917 0 0
1 -6.075 -2.025 -8.1 0.01 0.0 0.0 38.6817305917 0 0
1 -6.075 -2.025 -4.05 0.01 0.0 0.0 38.6817305917 0 0
1 -6.075 -4.05 -6.075 0.01 0.0 0.0 38.6817305917 0 0
1 -4.05 -2.025 -6.075 0.01 0.0 0.0 38.6817305917 0 0
1 -8.1 -2.025 -6.075 0.01 0.0 0.0 38.6817305917 0 0
1 -6.075 0.0 -6.075 0.01 0.0 0.0 38.6817305917 0 0
1 -8.1 -4.05 -4.05 0.01 0.0 0.0 38.6817305917 0 0
1 -4.05 -4.05 -4.05 0.01 0.0 0.0 38.6817305917 0 0
1 -4.05 0.0 -4.05 0.01 0.0 0.0 38.6817305917 0 0
1 -8.1 0.0 -4.05 0.01 0.0 0.0 38.6817305917 0 0
1 -8.1 -4.05 0.0 0.01 0.0 0.0 38.6817305917 0 0
1 -4.05 -4.05 0.0 0.01 0.0 0.0 38.6817305917 0 0
1 -4.05 0.0 0.0 0.01 0.0 0.0 38.6817305917 0 0
1 -8.1 0.0 0.0 0.01 0.0 0.0 38.6817305917 0 0
1 -6.075 -2.025 -4.05 0.01 0.0 0.0 38.6817305917 0 0
1 -6.075 -2.025 0.0 0.01 0.0 0.0 38.6817305917 0 0
1 -6.075 -4.05 -2.025 0.01 0.0 0.0 38.6817305917 0 0
1 -4.05 -2.025 -2.025 0.01 0.0 0.0 38.6817305917 0 0
1 -8.1 -2.025 -2.025 0.01 0.0 0.0 38.6817305917 0 0
1 -6.075 0.0 -2.025 0.01 0.0 0.0 38.6817305917 0 0
1 -4.05 -8.1 -8.1 0.01 0.0 0.0 38.6817305917 0 0
1 0.0 -8.1 -8.1 0.01 0.0 0.0 38.6817305917 0 0
1 0.0 -4.05 -8.1 0.01 0.0 0.0 38.6817305917 0 0
1 -4.05 -4.05 -8.1 0.01 0.0 0.0 38.6817305917 0 0
1 -4.05 -8.1 -4.05 0.01 0.0 0.0 38.6817305917 0 0
1 0.0 -8.1 -4.05 0.01 0.0 0.0 38.6817305917 0 0
1 0.0 -4.05 -4.05 0.01 0.0 0.0 38.6817305917 0 0
1 -4.05 -4.05 -4.05 0.01 0.0 0.0 38.6817305917 0 0
1 -2.025 -6.075 -8.1 0.01 0.0 0.0 38.6817305917 0 0
1 -2.025 -6.075 -4.05 0.01 0.0 0.0 38.6817305917 0 0
1 -2.025 -8.1 -6.075 0.01 0.0 0.0 38.6817305917 0 0
1 0.0 -6.075 -6.075 0.01 0.0 0.0 38.6817305917 0 0
1 -4.05 -6.075 -6.075 0.01 0.0 0.0 38.6817305917 0 0
1 -2.025 -4.05 -6.075 0.01 0.0 0.0 38.6817305917 0 0
1 -4.05 -8.1 -4.05 0.01 0.0 0.0 38.6817305917 0 0
1 0.0 -8.1 -4.05 0.01 0.0 0.0 38.6817305917 0 0
1 0.0 -4.05 -4.05 0.01 0.0 0.0 38.6817305917 0 0
1 -4.05 -4.05 -4.05 0.01 0.0 0.0 38.6817305917 0 0
1 -4.05 -8.1 0.0 0.01 0.0 0.0 38.6817305917 0 0
1 0.0 -8.1 0.0 0.01 0.0 0.0 38.6817305917 0 0
1 0.0 -4.05 0.0 0.01 0.0 0.0 38.6817305917 0 0
1 -4.05 -4.05 0.0 0.01 0.0 0.0 38.6817305917 0 0
1 -2.025 -6.075 -4.05 0.01 0.0 0.0 38.6817305917 0 0
1 -2.025 -6.075 0.0 0.01 0.0 0.0 38.6817305917 0 0
1 -2.025 -8.1 -2.025 0.01 0.0 0.0 38.6817305917 0 0
1 0.0 -6.075 -2.025 0.01 0.0 0.0 38.6817305917 0 0
1 -4.05 -6.075 -2.025 0.01 0.0 0.0 38.6817305917 0 0
1 -2.025 -4.05 -2.025 0.01 0.0 0.0 38.6817305917 0 0
1 -4.05 -4.05 -8.1 0.01 0.0 0.0 38.6817305917 0 0
1 0.0 -4.05 -8.1 0.01 0.0 0.0 38.6817305917 0 0
1 0.0 0.0 -8.1 0.01 0.0 0.0 38.6817305917 0 0
1 -4.05 0.0 -8.1 0.01 0.0 0.0 38.6817305917 0 0
1 -4.05 -4.05 -4.05 0.01 0.0 0.0 38.6817305917 0 0
1 0.0 -4.05 -4.05 0.01 0.0 0.0 38.6817305917 0 0
1 0.0 0.0 -4.05 0.01 0.0 0.0 38.6817305917 0 0
1 -4.05 0.0 -4.05 0.01 0.0 0.0 38.6817305917 0 0
1 -2.025 -2.025 -8.1 0.01 0.0 0.0 38.6817305917 0 0
1 -2.025 -2.025 -4.05 0.01 0.0 0.0 38.6817305917 0 0
1 -2.025 -4.05 -6.075 0.01 0.0 0.0 38.6817305917 0 0
1 0.0 -2.025 -6.075 0.01 0.0 0.0 38.6817305917 0 0
1 -4.05 -2.025 -6.075 0.01 0.0 0.0 38.6817305917 0 0
1 -2.025 0.0 -6.075 0.01 0.0 0.0 38.6817305917 0 0
1 -4.05 -4.05 -4.05 0.01 0.0 0.0 38.6817305917 0 0
1 0.0 -4.05 -4.05 0.01 0.0 0.0 38.6817305917 0 0
1 0.0 0.0 -4.05 0.01 0.0 0.0 38.6817305917 0 0
1 -4.05 0.0 -4.05 0.01 0.0 0.0 38.6817305917 0 0
1 -4.05 -4.05 0.0 0.01 0.0 0.0 38.6817305917 0 0
1 0.0 -4.05 0.0 0.01 0.0 0.0 38.6817305917 0 0
1 0.0 0.0 0.0 0.01 0.0 0.0 38.6817305917 0 0
1 -4.05 0.0 0.0 0.01 0.0 0.0 38.6817305917 0 0
1 -2.025 -2.025 -4.05 0.01 0.0 0.0 38.6817305917 0 0
1 -2.025 -2.025 0.0 0.01 0.0 0.0 38.6817305917 0 0
1 -2.025 -4.05 -2.025 0.01 0.0 0.0 38.6817305917 0 0
1 0.0 -2.025 -2.025 0.01 0.0 0.0 38.6817305917 0 0
1 -4.05 -2.025 -2.025 0.01 0.0 0.0 38.6817305917 0 0
1 -2.025 0.0 -2.025 0.01 0.0 0.0 38.6817305917 0 0
1 -8.1 -8.1 0.0 0.01 0.0 0.0 38.6817305917 0 0
1 -4.05 -8.1 0.0 0.01 0.0 0.0 38.6817305917 0 0
1 -4.05 -4.05 0.0 0.01 0.0 0.0 38.6817305917 0 0
1 -8.1 -4.05 0.0 0.01 0.0 0.0 38.6817305917 0 0
1 -8.1 -8.1 4.05 0.01 0.0 0.0 38.6817305917 0 0
1 -4.05 -8.1 4.05 0.01 0.0 0.0 38.6817305917 0 0
1 -4.05 -4.05 4.05 0.01 0.0 0.0 38.6817305917 0 0
1 -8.1 -4.05 4.05 0.01 0.0 0.0 38.6817305917 0 0
1 -6.075 -6.075 0.0 0.01 0.0 0.0 38.6817305917 0 0
1 -6.075 -6.075 4.05 0.01 0.0 0.0 38.6817305917 0 0
1 -6.075 -8.1 2.025 0.01 0.0 0.0 38.6817305917 0 0
1 -4.05 -6.075 2.025 0.01 0.0 0.0 38.6817305917 0 0
1 -8.1 -6.075 2.025 0.01 0.0 0.0 38.6817305917 0 0
1 -6.075 -4.05 2.025 0.01 0.0 0.0 38.6817305917 0 0
1 -8.1 -8.1 4.05 0.01 0.0 0.0 38.6817305917 0 0
1 -4.05 -8.1 4.05 0.01 0.0 0.0 38.6817305917 0 0
1 -4.05 -4.05 4.05 0.01 0.0 0.0 38.6817305917 0 0
1 -8.1 -4.05 4.05 0.01 0.0 0.0 38.6817305917 0 0
1 -8.1 -8.1 8.1 0.01 0.0 0.0 38.6817305917 0 0
1 -4.05 -8.1 8.1 0.01 0.0 0.0 38.6817305917 0 0
1 -4.05 -4.05 8.1 0.01 0.0 0.0 38.6817305917 0 0
1 -8.1 -4.05 8.1 0.01 0.0 0.0 38.6817305917 0 0
1 -6.075 -6.075 4.05 0.01 0.0 0.0 38.6817305917 0 0
1 -6.075 -6.075 8.1 0.01 0.0 0.0 38.6817305917 0 0
1 -6.075 -8.1 6.075 0.01 0.0 0.0 38.6817305917 0 0
1 -4.05 -6.075 6.075 0.01 0.0 0.0 38.6817305917 0 0
1 -8.1 -6.075 6.075 0.01 0.0 0.0 38.6817305917 0 0
1 -6.075 -4.05 6.075 0.01 0.0 0.0 38.6817305917 0 0
1 -8.1 -4.05 0.0 0.01 0.0 0.0 38.6817305917 0 0
1 -4.05 -4.05 0.0 0.01 0.0 0.0 38.6817305917 0 0
1 -4.05 0.0 0.0 0.01 0.0 0.0 38.6817305917 0 0
1 -8.1 0.0 0.0 0.01 0.0 0.0 38.6817305917 0 0
1 -8.1 -4.05 4.05 0.01 0.0 0.0 38.6817305917 0 0
1 -4.05 -4.05 4.05 0.01 0.0 0.0 38.6817305917 0 0
1 -4.05 0.0 4.05 0.01 0.0 0.0 38.6817305917 0 0
1 -8.1 0.0 4.05 0.01 0.0 0.0 38.6817305917 0 0
1 -6.075 -2.025 0.0 0.01 0.0 0.0 38.6817305917 0 0
1 -6.075 -2.025 4.05 0.01 0.0 0.0 38.6817305917 0 0
1 -6.075 -4.05 2.025 0.01 0.0 0.0 38.6817305917 0 0
1 -4.05 -2.025 2.025 0.01 0.0 0.0 38.6817305917 0 0
1 -8.1 -2.025 2.025 0.01 0.0 0.0 38.6817305917 0 0
1 -6.075 0.0 2.025 0.01 0.0 0.0 38.6817305917 0 0
1 -8.1 -4.05 4.05 0.01 0.0 0.0 38.6817305917 0 0
1 -4.05 -4.05 4.05 0.01 0.0 0.0 38.6817305917 0 0
1 -4.05 0.0 4.05 0.01 0.0 0.0 38.6817305917 0 0
1 -8.1 0.0 4.05 0.01 0.0 0.0 38.6817305917 0 0
1 -8.1 -4.05 8.1 0.01 0.0 0.0 38.6817305917 0 0
1 -4.05 -4.05 8.1 0.01 0.0 0.0 38.6817305917 0 0
1 -4.05 0.0 8.1 0.01 0.0 0.0 38.6817305917 0 0
1 -8.1 0.0 8.1 0.01 0.0 0.0 38.6817305917 0 0
1 -6.075 -2.025 4.05 0.01 0.0 0.0 38.6817305917 0 0
1 -6.075 -2.025 8.1 0.01 0.0 0.0 38.6817305917 0 0
1 -6.075 -4.05 6.075 0.01 0.0 0.0 38.6817305917 0 0
1 -4.05 -2.025 6.075 0.01 0.0 0.0 38.6817305917 0 0
1 -8.1 -2.025 6.075 0.01 0.0 0.0 38.6817305917 0 0
1 -6.075 0.0 6.075 0.01 0.0 0.0 38.6817305917 0 0
1 -4.05 -8.1 0.0 0.01 0.0 0.0 38.6817305917 0 0
1 0.0 -8.1 0.0 0.01 0.0 0.0 38.6817305917 0 0
1 0.0 -4.05 0.0 0.01 0.0 0.0 38.6817305917 0 0
1 -4.05 -4.05 0.0 0.01 0.0 0.0 38.6817305917 0 0
1 -4.05 -8.1 4.05 0.01 0.0 0.0 38.6817305917 0 0
1 0.0 -8.1 4.05 0.01 0.0 0.0 38.6817305917 0 0
1 0.0 -4.05 4.05 0.01 0.0 0.0 38.6817305917 0 0
1 -4.05 -4.05 4.05 0.01 0.0 0.0 38.6817305917 0 0
1 -2.025 -6.075 0.0 0.01 0.0 0.0 38.6817305917 0 0
1 -2.025 -6.075 4.05 0.01 0.0 0.0 38.6817305917 0 0
1 -2.025 -8.1 2.025 0.01 0.0 0.0 38.6817305917 0 0
1 0.0 -6.075 2.025 0.01 0.0 0.0 38.6817305917 0 0
1 -4.05 -6.075 2.025 0.01 0.0 0.0 38.6817305917 0 0
1 -2.025 -4.05 2.025 0.01 0.0 0.0 38.6817305917 0 0
1 -4.05 -8.1 4.05 0.01 0.0 0.0 38.6817305917 0 0
1 0.0 -8.1 4.05 0.01 0.0 0.0 38.6817305917 0 0
1 0.0 -4.05 4.05 0.01 0.0 0.0 38.6817305917 0 0
1 -4.05 -4.05 4.05 0.01 0.0 0.0 38.6817305917 0 0
1 -4.05 -8.1 8.1 0.01 0.0 0.0 38.6817305917 0 0
1 0.0 -8.1 8.1 0.01 0.0 0.0 38.6817305917 0 0
1 0.0 -4.05 8.1 0.01 0.0 0.0 38.6817305917 0 0
1 -4.05 -4.05 8.1 0.01 0.0 0.0 38.6817305917 0 0
1 -2.025 -6.075 4.05 0.01 0.0 0.0 38.6817305917 0 0
1 -2.025 -6.075 8.1 0.01 0.0 0.0 38.6817305917 0 0
1 -2.025 -8.1 6.075 0.01 0.0 0.0 38.6817305917 0 0
1 0.0 -6.075 6.075 0.01 0.0 0.0 38.6817305917 0 0
1 -4.05 -6.075 6.075 0.01 0.0 0.0 38.6817305917 0 0
1 -2.025 -4.05 6.075 0.01 0.0 0.0 38.6817305917 0 0
1 -4.05 -4.05 0.0 0.01 0.0 0.0 38.6817305917 0 0
1 0.0 -4.05 0.0 0.01 0.0 0.0 38.6817305917 0 0
1 0.0 0.0 0.0 0.01 0.0 0.0 38.6817305917 0 0
1 -4.05 0.0 0.0 0.01 0.0 0.0 38.6817305917 0 0
1 -4.05 -4.05 4.05 0.01 0.0 0.0 38.6817305917 0 0
1 0.0 -4.05 4.05 0.01 0.0 0.0 38.6817305917 0 0
1 0.0 0.0 4.05 0.01 0.0 0.0 38.6817305917 0 0
1 -4.05 0.0 4.05 0.01 0.0 0.0 38.6817305917 0 0
1 -2.025 -2.025 0.0 0.01 0.0 0.0 38.6817305917 0 0
1 -2.025 -2.025 4.05 0.01 0.0 0.0 38.6817305917 0 0
1 -2.025 -4.05 2.025 0.01 0.0 0.0 38.6817305917 0 0
1 0.0 -2.025 2.025 0.01 0.0 0.0 38.6817305917 0 0
1 -4.05 -2.025 2.025 0.01 0.0 0.0 38.6817305917 0 0
1 -2.025 0.0 2.025 0.01 0.0 0.0 38.6817305917 0 0
1 -4.05 -4.05 4.05 0.01 0.0 0.0 38.6817305917 0 0
1 0.0 -4.05 4.05 0.01 0.0 0.0 38.6817305917 0 0
1 0.0 0.0 4.05 0.01 0.0 0.0 38.6817305917 0 0
1 -4.05 0.0 4.05 0.01 0.0 0.0 38.6817305917 0 0
1 -4.05 -4.05 8.1 0.01 0.0 0.0 38.6817305917 0 0
1 0.0 -4.05 8.1 0.01 0.0 0.0 38.6817305917 0 0
1 0.0 0.0 8.1 0.01 0.0 0.0 38.6817305917 0 0
1 -4.05 0.0 8.1 0.01 0.0 0.0 38.6817305917 0 0
1 -2.025 -2.025 4.05 0.01 0.0 0.0 38.6817305917 0 0
1 -2.025 -2.025 8.1 0.01 0.0 0.0 38.6817305917 0 0
1 -2.025 -4.05 6.075 0.01 0.0 0.0 38.6817305917 0 0
1 0.0 -2.025 6.075 0.01 0.0 0.0 38.6817305917 0 0
1 -4.05 -2.025 6.075 0.01 0.0 0.0 38.6817305917 0 0
1 -2.025 0.0 6.075 0.01 0.0 0.0 38.6817305917 0 0
1 -8.1 -8.1 8.1 0.01 0.0 0.0 38.6817305917 0 0
1 -4.05 -8.1 8.1 0.01 0.0 0.0 38.6817305917 0 0
1 -4.05 -4.05 8.1 0.01 0.0 0.0 38.6817305917 0 0
1 -8.1 -4.05 8.1 0.01 0.0 0.0 38.6817305917 0 0
1 -8.1 -8.1 12.15 0.01 0.0 0.0 38.6817305917 0 0
1 -4.05 -8.1 12.15 0.01 0.0 0.0 38.6817305917 0 0
1 -4.05 -4.05 12.15 0.01 0.0 0.0 38.6817305917 0 0
1 -8.1 -4.05 12.15 0.01 0.0 0.0 38.6817305917 0 0
1 -6.075 -6.075 8.1 0.01 0.0 0.0 38.6817305917 0 0
1 -6.075 -6.075 12.15 0.01 0.0 0.0 38.6817305917 0 0
1 -6.075 -8.1 10.125 0.01 0.0 0.0 38.6817305917 0 0
1 -4.05 -6.075 10.125 0.01 0.0 0.0 38.6817305917 0 0
1 -8.1 -6.075 10.125 0.01 0.0 0.0 38.6817305917 0 0
1 -6.075 -4.05 10.125 0.01 0.0 0.0 38.6817305917 0 0
1 -8.1 -8.1 12.15 0.01 0.0 0.0 38.6817305917 0 0
1 -4.05 -8.1 12.15 0.01 0.0 0.0 38.6817305917 0 0
1 -4.05 -4.05 12.15 0.01 0.0 0.0 38.6817305917 0 0
1 -8.1 -4.05 12.15 0.01 0.0 0.0 38.6817305917 0 0
1 -8.1 -8.1 16.2 0.01 0.0 0.0 38.6817305917 0 0
1 -4.05 -8.1 16.2 0.01 0.0 0.0 38.6817305917 0 0
1 -4.05 -4.05 16.2 0.01 0.0 0.0 38.6817305917 0 0
1 -8.1 -4.05 16.2 0.01 0.0 0.0 38.6817305917 0 0
1 -6.075 -6.075 12.15 0.01 0.0 0.0 38.6817305917 0 0
1 -6.075 -6.075 16.2 0.01 0.0 0.0 38.6817305917 0 0
1 -6.075 -8.1 14.175 0.01 0.0 0.0 38.6817305917 0 0
1 -4.05 -6.075 14.175 0.01 0.0 0.0 38.6817305917 0 0
1 -8.1 -6.075 14.175 0.01 0.0 0.0 38.6817305917 0 0
1 -6.075 -4.05 14.175 0.01 0.0 0.0 38.6817305917 0 0
1 -8.1 -4.05 8.1 0.01 0.0 0.0 38.6817305917 0 0
1 -4.05 -4.05 8.1 0.01 0.0 0.0 38.6817305917 0 0
1 -4.05 0.0 8.1 0.01 0.0 0.0 38.6817305917 0 0
1 -8.1 0.0 8.1 0.01 0.0 0.0 38.6817305917 0 0
1 -8.1 -4.05 12.15 0.01 0.0 0.0 38.6817305917 0 0
1 -4.05 -4.05 12.15 0.01 0.0 0.0 38.6817305917 0 0
1 -4.05 0.0 12.15 0.01 0.0 0.0 38.6817305917 0 0
1 -8.1 0.0 12.15 0.01 0.0 0.0 38.6817305917 0 0
1 -6.075 -2.025 8.1 0.01 0.0 0.0 38.6817305917 0 0
1 -6.075 -2.025 12.15 0.01 0.0 0.0 38.6817305917 0 0
1 -6.075 -4.05 10.125 0.01 0.0 0.0 38.6817305917 0 0
1 -4.05 -2.025 10.125 0.01 0.0 0.0 38.6817305917 0 0
1 -8.1 -2.025 10.125 0.01 0.0 0.0 38.6817305917 0 0
1 -6.075 0.0 10.125 0.01 0.0 0.0 38.6817305917 0 0
1 -8.1 -4.05 12.15 0.01 0.0 0.0 38.6817305917 0 0
1 -4.05 -4.05 12.15 0.01 0.0 0.0 38.6817305917 0 0
1 -4.05 0.0 12.15 0.01 0.0 0.0 38.6817305917 0 0
1 -8.1 0.0 12.15 0.01 0.0 0.0 38.6817305917 0 0
1 -8.1 -4.05 16.2 0.01 0.0 0.0 38.6817305917 0 0
1 -4.05 -4.05 16.2 0.01 0.0 0.0 38.6817305917 0 0
1 -4.05 0.0 16.2 0.01 0.0 0.0 38.6817305917 0 0
1 -8.1 0.0 16.2 0.01 0.0 0.0 38.6817305917 0 0
1 -6.075 -2.025 12.15 0.01 0.0 0.0 38.6817305917 0 0
1 -6.075 -2.025 16.2 0.01 0.0 0.0 38.6817305917 0 0
1 -6.075 -4.05 14.175 0.01 0.0 0.0 38.6817305917 0 0
1 -4.05 -2.025 14.175 0.01 0.0 0.0 38.6817305917 0 0
1 -8.1 -2.025 14.175 0.01 0.0 0.0 38.6817305917 0 0
1 -6.075 0.0 14.175 0.01 0.0 0.0 38.6817305917 0 0
1 -4.05 -8.1 8.1 0.01 0.0 0.0 38.6817305917 0 0
1 0.0 -8.1 8.1 0.01 0.0 0.0 38.6817305917 0 0
1 0.0 -4.05 8.1 0.01 0.0 0.0 38.6817305917 0 0
1 -4.05 -4.05 8.1 0.01 0.0 0.0 38.6817305917 0 0
1 -4.05 -8.1 12.15 0.01 0.0 0.0 38.6817305917 0 0
1 0.0 -8.1 12.15 0.01 0.0 0.0 38.6817305917 0 0
1 0.0 -4.05 12.15 0.01 0.0 0.0 38.6817305917 0 0
1 -4.05 -4.05 12.15 0.01 0.0 0.0 38.6817305917 0 0
1 -2.025 -6.075 8.1 0.01 0.0 0.0 38.6817305917 0 0
1 -2.025 -6.075 12.15 0.01 0.0 0.0 38.6817305917 0 0
1 -2.025 -8.1 10.125 0.01 0.0 0.0 38.6817305917 0 0
1 0.0 -6.075 10.125 0.01 0.0 0.0 38.6817305917 0 0
1 -4.05 -6.075 10.125 0.01 0.0 0.0 38.6817305917 0 0
1 -2.025 -4.05 10.125 0.01 0.0 0.0 38.6817305917 0 0
1 -4.05 -8.1 12.15 0.01 0.0 0.0 38.6817305917 0 0
1 0.0 -8.1 12.15 0.01 0.0 0.0 38.6817305917 0 0
1 0.0 -4.05 12.15 0.01 0.0 0.0 38.6817305917 0 0
1 -4.05 -4.05 12.15 0.01 0.0 0.0 38.6817305917 0 0
1 -4.05 -8.1 16.2 0.01 0.0 0.0 38.6817305917 0 0
1 0.0 -8.1 16.2 0.01 0.0 0.0 38.6817305917 0 0
1 0.0 -4.05 16.2 0.01 0.0 0.0 38.6817305917 0 0
1 -4.05 -4.05 16.2 0.01 0.0 0.0 38.6817305917 0 0
1 -2.025 -6.075 12.15 0.01 0.0 0.0 38.6817305917 0 0
1 -2.025 -6.075 16.2 0.01 0.0 0.0 38.6817305917 0 0
1 -2.025 -8.1 14.175 0.01 0.0 0.0 38.6817305917 0 0
1 0.0 -6.075 14.175 0.01 0.0 0.0 38.6817305917 0 0
1 -4.05 -6.075 14.175 0.01 0.0 0.0 38.6817305917 0 0
1 -2.025 -4.05 14.175 0.01 0.0 0.0 38.6817305917 0 0
1 -4.05 -4.05 8.1 0.01 0.0 0.0 38.6817305917 0 0
1 0.0 -4.05 8.1 0.01 0.0 0.0 38.6817305917 0 0
1 0.0 0.0 8.1 0.01 0.0 0.0 38.6817305917 0 0
1 -4.05 0.0 8.1 0.01 0.0 0.0 38.6817305917 0 0
1 -4.05 -4.05 12.15 0.01 0.0 0.0 38.6817305917 0 0
1 0.0 -4.05 12.15 0.01 0.0 0.0 38.6817305917 0 0
1 0.0 0.0 12.15 0.01 0.0 0.0 38.6817305917 0 0
1 -4.05 0.0 12.15 0.01 0.0 0.0 38.6817305917 0 0
1 -2.025 -2.025 8.1 0.01 0.0 0.0 38.6817305917 0 0
1 -2.025 -2.025 12.15 0.01 0.0 0.0 38.6817305917 0 0
1 -2.025 -4.05 10.125 0.01 0.0 0.0 38.6817305917 0 0
1 0.0 -2.025 10.125 0.01 0.0 0.0 38.6817305917 0 0
1 -4.05 -2.025 10.125 0.01 0.0 0.0 38.6817305917 0 0
1 -2.025 0.0 10.125 0.01 0.0 0.0 38.6817305917 0 0
1 -4.05 -4.05 12.15 0.01 0.0 0.0 38.6817305917 0 0
1 0.0 -4.05 12.15 0.01 0.0 0.0 38.6817305917 0 0
1 0.0 0.0 12.15 0.01 0.0 0.0 38.6817305917 0 0
1 -4.05 0.0 12.15 0.01 0.0 0.0 38.6817305917 0 0
1 -4.05 -4.05 16.2 0.01 0.0 0.0 38.6817305917 0 0
1 0.0 -4.05 16.2 0.01 0.0 0.0 38.6817305917 0 0
1 0.0 0.0 16.2 0.01 0.0 0.0 38.6817305917 0 0
1 -4.05 0.0 16.2 0.01 0.0 0.0 38.6817305917 0 0
1 -2.025 -2.025 12.15 0.01 0.0 0.0 38.6817305917 0 0
1 -2.025 -2.025 16.2 0.01 0.0 0.0 38.6817305917 0 0
1 -2.025 -4.05 14.175 0.01 0.0 0.0 38.6817305917 0 0
1 0.0 -2.025 14.175 0.01 0.0 0.0 38.6817305917 0 0
1 -4.05 -2.025 14.175 0.01 0.0 0.0 38.6817305917 0 0
1 -2.025 0.0 14.175 0.01 0.0 0.0 38.6817305917 0 0
1 -8.1 0.0 -8.1 0.01 0.0 0.0 38.6817305917 0 0
1 -4.05 0.0 -8.1 0.01 0.0 0.0 38.6817305917 0 0
1 -4.05 4.05 -8.1 0.01 0.0 0.0 38.6817305917 0 0
1 -8.1 4.05 -8.1 0.01 0.0 0.0 38.6817305917 0 0
1 -8.1 0.0 -4.05 0.01 0.0 0.0 38.6817305917 0 0
1 -4.05 0.0 -4.05 0.01 0.0 0.0 38.6817305917 0 0
1 -4.05 4.05 -4.05 0.01 0.0 0.0 38.6817305917 0 0
1 -8.1 4.05 -4.05 0.01 0.0 0.0 38.6817305917 0 0
1 -6.075 2.025 -8.1 0.01 0.0 0.0 38.6817305917 0 0
1 -6.075 2.025 -4.05 0.01 0.0 0.0 38.6817305917 0 0
1 -6.075 0.0 -6.075 0.01 0.0 0.0 38.6817305917 0 0
1 -4.05 2.025 -6.075 0.01 0.0 0.0 38.6817305917 0 0
1 -8.1 2.025 -6.075 0.01 0.0 0.0 38.6817305917 0 0
1 -6.075 4.05 -6.075 0.01 0.0 0.0 38.6817305917 0 0
1 -8.1 0.0 -4.05 0.01 0.0 0.0 38.6817305917 0 0
1 -4.05 0.0 -4.05 0.01 0.0 0.0 38.6817305917 0 0
1 -4.05 4.05 -4.05 0.01 0.0 0.0 38.6817305917 0 0
1 -8.1 4.05 -4.05 0.01 0.0 0.0 38.6817305917 0 0
1 -8.1 0.0 0.0 0.01 0.0 0.0 38.6817305917 0 0
1 -4.05 0.0 0.0 0.01 0.0 0.0 38.6817305917 0 0
1 -4.05 4.05 0.0 0.01 0.0 0.0 38.6817305917 0 0
1 -8.1 4.05 0.0 0.01 0.0 0.0 38.6817305917 0 0
1 -6.075 2.025 -4.05 0.01 0.0 0.0 38.6817305917 0 0
1 -6.075 2.025 0.0 0.01 0.0 0.0 38.6817305917 0 0
1 -6.075 0.0 -2.025 0.01 0.0 0.0 38.6817305917 0 0
1 -4.05 2.025 -2.025 0.01 0.0 0.0 38.6817305917 0 0
1 -8.1 2.025 -2.025 0.01 0.0 0.0 38.6817305917 0 0
1 -6.075 4.05 -2.025 0.01 0.0 0.0 38.6817305917 0 0
1 -8.1 4.05 -8.1 0.01 0.0 0.0 38.6817305917 0 0
1 -4.05 4.05 -8.1 0.01 0.0 0.0 38.6817305917 0 0
1 -4.05 8.1 -8.1 0.01 0.0 0.0 38.6817305917 0 0
1 -8.1 8.1 -8.1 0.01 0.0 0.0 38.6817305917 0 0
1 -8.1 4.05 -4.05 0.01 0.0 0.0 38.6817305917 0 0
1 -4.05 4.05 -4.05 0.01 0.0 0.0 38.6817305917 0 0
1 -4.05 8.1 -4.05 0.01 0.0 0.0 38.6817305917 0 0
1 -8.1 8.1 -4.05 0.01 0.0 0.0 38.6817305917 0 0
1 -6.075 6.075 -8.1 0.01 0.0 0.0 38.6817305917 0 0
1 -6.075 6.075 -4.05 0.01 0.0 0.0 38.6817305917 0 0
1 -6.075 4.05 -6.075 0.01 0.0 0.0 38.6817305917 0 0
1 -4.05 6.075 -6.075 0.01 0.0 0.0 38.6817305917 0 0
1 -8.1 6.075 -6.075 0.01 0.0 0.0 38.6817305917 0 0
1 -6.075 8.1 -6.075 0.01 0.0 0.0 38.6817305917 0 0
1 -8.1 4.05 -4.05 0.01 0.0 0.0 38.6817305917 0 0
1 -4.05 4.05 -4.05 0.01 0.0 0.0 38.6817305917 0 0
1 -4.05 8.1 -4.05 0.01 0.0 0.0 38.6817305917 0 0
1 -8.1 8.1 -4.05 0.01 0.0 0.0 38.6817305917 0 0
1 -8.1 4.05 0.0 0.01 0.0 0.0 38.6817305917 0 0
1 -4.05 4.05 0.0 0.01 0.0 0.0 38.6817305917 0 0
1 -4.05 8.1 0.0 0.01 0.0 0.0 38.6817305917 0 0
1 -8.1 8.1 0.0 0.01 0.0 0.0 38.6817305917 0 0
1 -6.075 6.075 -4.05 0.01 0.0 0.0 38.6817305917 0 0
1 -6.075 6.075 0.0 0.01 0.0 0.0 38.6817305917 0 0
1 -6.075 4.05 -2.025 0.01 0.0 0.0 38.6817305917 0 0
1 -4.05 6.075 -2.025 0.01 0.0 0.0 38.6817305917 0 0
1 -8.1 6.075 -2.025 0.01 0.0 0.0 38.6817305917 0 0
1 -6.075 8.1 -2.025 0.01 0.0 0.0 38.6817305917 0 0
1 -4.05 0.0 -8.1 0.01 0.0 0.0 38.6817305917 0 0
1 0.0 0.0 -8.1 0.01 0.0 0.0 38.6817305917 0 0
1 0.0 4.05 -8.1 0.01 0.0 0.0 38.6817305917 0 0
1 -4.05 4.05 -8.1 0.01 0.0 0.0 38.6817305917 0 0
1 -4.05 0.0 -4.05 0.01 0.0 0.0 38.6817305917 0 0
1 0.0 0.0 -4.05 0.01 0.0 0.0 38.6817305917 0 0
1 0.0 4.05 -4.05 0.01 0.0 0.0 38.6817305917 0 0
1 -4.05 4.05 -4.05 0.01 0.0 0.0 38.6817305917 0 0
1 -2.025 2.025 -8.1 0.01 0.0 0.0 38.6817305917 0 0
1 -2.025 2.025 -4.05 0.01 0.0 0.0 38.6817305917 0 0
1 -2.025 0.0 -6.075 0.01 0.0 0.0 38.6817305917 0 0
1 0.0 2.025 -6.075 0.01 0.0 0.0 38.6817305917 0 0
1 -4.05 2.025 -6.075 0.01 0.0 0.0 38.6817305917 0 0
1 -2.025 4.05 -6.075 0.01 0.0 0.0 38.6817305917 0 0
1 -4.05 0.0 -4.05 0.01 0.0 0.0 38.6817305917 0 0
1 0.0 0.0 -4.05 0.01 0.0 0.0 38.6817305917 0 0
1 0.0 4.05 -4.05 0.01 0.0 0.0 38.6817305917 0 0
1 -4.05 4.05 -4.05 0.01 0.0 0.0 38.6817305917 0 0
1 -4.05 0.0 0.0 0.01 0.0 0.0 38.6817305917 0 0
1 0.0 0.0 0.0 0.01 0.0 0.0 38.6817305917 0 0
1 0.0 4.05 0.0 0.01 0.0 0.0 38.6817305917 0 0
1 -4.05 4.05 0.0 0.01 0.0 0.0 38.6817305917 0 0
1 -2.025 2.025 -4.05 0.01 0.0 0.0 38.6817305917 0 0
1 -2.025 2.025 0.0 0.01 0.0 0.0 38.6817305917 0 0
1 -2.025 0.0 -2.025 0.01 0.0 0.0 38.6817305917 0 0
1 0.0 2.025 -2.025 0.01 0.0 0.0 38.6817305917 0 0
1 -4.05 2.025 -2.025 0.01 0.0 0.0 38.6817305917 0 0
1 -2.025 4.05 -2.025 0.01 0.0 0.0 38.6817305917 0 0
1 -4.05 4.05 -8.1 0.01 0.0 0.0 38.6817305917 0 0
1 0.0 4.05 -8.1 0.01 0.0 0.0 38.6817305917 0 0
1 0.0 8.1 -8.1 0.01 0.0 0.0 38.6817305917 0 0
1 -4.05 8.1 -8.1 0.01 0.0 0.0 38.6817305917 0 0
1 -4.05 4.05 -4.05 0.01 0.0 0.0 38.6817305917 0 0
1 0.0 4.05 -4.05 0.01 0.0 0.0 38.6817305917 0 0
1 0.0 8.1 -4.05 0.01 0.0 0.0 38.6817305917 0 0
1 -4.05 8.1 -4.05 0.01 0.0 0.0 38.6817305917 0 0
1 -2.025 6.075 -8.1 0.01 0.0 0.0 38.6817305917 0 0
1 -2.025 6.075 -4.05 0.01 0.0 0.0 38.6817305917 0 0
1 -2.025 4.05 -6.075 0.01 0.0 0.0 38.6817305917 0 0
1 0.0 6.075 -6.075 0.01 0.0 0.0 38.6817305917 0 0
1 -4.05 6.075 -6.075 0.01 0.0 0.0 38.6817305917 0 0
1 -2.025 8.1 -6.075 0.01 0.0 0.0 38.6817305917 0 0
1 -4.05 4.05 -4.05 0.01 0.0 0.0 38.6817305917 0 0
1 0.0 4.05 -4.05 0.01 0.0 0.0 38.6817305917 0 0
1 0.0 8.1 -4.05 0.01 0.0 0.0 38.6817305917 0 0
1 -4.05 8.1 -4.05 0.01 0.0 0.0 38.6817305917 0 0
1 -4.05 4.05 0.0 0.01 0.0 0.0 38.6817305917 0 0
1 0.0 4.05 0.0 0.01 0.0 0.0 38.6817305917 0 0
1 0.0 8.1 0.0 0.01 0.0 0.0 38.6817305917 0 0
1 -4.05 8.1 0.0 0.01 0.0 0.0 38.6817305917 0 0
1 -2.025 6.075 -4.05 0.01 0.0 0.0 38.6817305917 0 0
1 -2.025 6.075 0.0 0.01 0.0 0.0 38.6817305917 0 0
1 -2.025 4.05 -2.025 0.01 0.0 0.0 38.6817305917 0 0
1 0.0 6.075 -2.025 0.01 0.0 0.0 38.6817305917 0 0
1 -4.05 6.075 -2.025 0.01 0.0 0.0 38.6817305917 0 0
1 -2.025 8.1 -2.025 0.01 0.0 0.0 38.6817305917 0 0
1 -8.1 0.0 0.0 0.01 0.0 0.0 38.6817305917 0 0
1 -4.05 0.0 0.0 0.01 0.0 0.0 38.6817305917 0 0
1 -4.05 4.05 0.0 0.01 0.0 0.0 38.6817305917 0 0
1 -8.1 4.05 0.0 0.01 0.0 0.0 38.6817305917 0 0
1 -8.1 0.0 4.05 0.01 0.0 0.0 38.6817305917 0 0
1 -4.05 0.0 4.05 0.01 0.0 0.0 38.6817305917 0 0
1 -4.05 4.05 4.05 0.01 0.0 0.0 38.6817305917 0 0
1 -8.1 4.05 4.05 0.01 0.0 0.0 38.6817305917 0 0
1 -6.075 2.025 0.0 0.01 0.0 0.0 38.6817305917 0 0
1 -6.075 2.025 4.05 0.01 0.0 0.0 38.6817305917 0 0
1 -6.075 0.0 2.025 0.01 0.0 0.0 38.6817305917 0 0
1 -4.05 2.025 2.025 0.01 0.0 0.0 38.6817305917 0 0
1 -8.1 2.025 2.025 0.01 0.0 0.0 38.6817305917 0 0
1 -6.075 4.05 2.025 0.01 0.0 0.0 38.6817305917 0 0
1 -8.1 0.0 4.05 0.01 0.0 0.0 38.6817305917 0 0
1 -4.05 0.0 4.05 0.01 0.0 0.0 38.6817305917 0 0
1 -4.05 4.05 4.05 0.01 0.0 0.0 38.6817305917 0 0
1 -8.1 4.05 4.05 0.01 0.0 0.0 38.6817305917 0 0
1 -8.1 0.0 8.1 0.01 0.0 0.0 38.6817305917 0 0
1 -4.05 0.0 8.1 0.01 0.0 0.0 38.6817305917 0 0
1 -4.05 4.05 8.1 0.01 0.0 0.0 38.6817305917 0 0
1 -8.1 4.05 8.1 0.01 0.0 0.0 38.6817305917 0 0
1 -6.075 2.025 4.05 0.01 0.0 0.0 38.6817305917 0 0
1 -6.075 2.025 8.1 0.01 0.0 0.0 38.6817305917 0 0
1 -6.075 0.0 6.075 0.01 0.0 0.0 38.6817305917 0 0
1 -4.05 2.025 6.075 0.01 0.0 0.0 38.6817305917 0 0
1 -8.1 2.025 6.075 0.01 0.0 0.0 38.6817305917 0 0
1 -6.075 4.05 6.075 0.01 0.0 0.0 38.6817305917 0 0
1 -8.1 4.05 0.0 0.01 0.0 0.0 38.6817305917 0 0
1 -4.05 4.05 0.0 0.01 0.0 0.0 38.6817305917 0 0
1 -4.05 8.1 0.0 0.01 0.0 0.0 38.6817305917 0 0
1 -8.1 8.1 0.0 0.01 0.0 0.0 38.6817305917 0 0
1 -8.1 4.05 4.05 0.01 0.0 0.0 38.6817305917 0 0
1 -4.05 4.05 4.05 0.01 0.0 0.0 38.6817305917 0 0
1 -4.05 8.1 4.05 0.01 0.0 0.0 38.6817305917 0 0
1 -8.1 8.1 4.05 0.01 0.0 0.0 38.6817305917 0 0
1 -6.075 6.075 0.0 0.01 0.0 0.0 38.6817305917 0 0
1 -6.075 6.075 4.05 0.01 0.0 0.0 38.6817305917 0 0
1 -6.075 4.05 2.025 0.01 0.0 0.0 38.6817305917 0 0
1 -4.05 6.075 2.025 0.01 0.0 0.0 38.6817305917 0 0
1 -8.1 6.075 2.025 0.01 0.0 0.0 38.6817305917 0 0
1 -6.075 8.1 2.025 0.01 0.0 0.0 38.6817305917 0 0
1 -8.1 4.05 4.05 0.01 0.0 0.0 38.6817305917 0 0
1 -4.05 4.05 4.05 0.01 0.0 0.0 38.6817305917 0 0
1 -4.05 8.1 4.05 0.01 0.0 0.0 38.6817305917 0 0
1 -8.1 8.1 4.05 0.01 0.0 0.0 38.6817305917 0 0
1 -8.1 4.05 8.1 0.01 0.0 0.0 38.6817305917 0 0
1 -4.05 4.05 8.1 0.01 0.0 0.0 38.6817305917 0 0
1 -4.05 8.1 8.1 0.01 0.0 0.0 38.6817305917 0 0
1 -8.1 8.1 8.1 0.01 0.0 0.0 38.6817305917 0 0
1 -6.075 6.075 4.05 0.01 0.0 0.0 38.6817305917 0 0
1 -6.075 6.075 8.1 0.01 0.0 0.0 38.6817305917 0 0
1 -6.075 4.05 6.075 0.01 0.0 0.0 38.6817305917 0 0
1 -4.05 6.075 6.075 0.01 0.0 0.0 38.6817305917 0 0
1 -8.1 6.075 6.075 0.01 0.0 0.0 38.6817305917 0 0
1 -6.075 8.1 6.075 0.01 0.0 0.0 38.6817305917 0 0
1 -4.05 0.0 0.0 0.01 0.0 0.0 38.6817305917 0 0
1 0.0 0.0 0.0 0.01 0.0 0.0 38.6817305917 0 0
1 0.0 4.05 0.0 0.01 0.0 0.0 38.6817305917 0 0
1 -4.05 4.05 0.0 0.01 0.0 0.0 38.6817305917 0 0
1 -4.05 0.0 4.05 0.01 0.0 0.0 38.6817305917 0 0
1 0.0 0.0 4.05 0.01 0.0 0.0 38.6817305917 0 0
1 0.0 4.05 4.05 0.01 0.0 0.0 38.6817305917 0 0
1 -4.05 4.05 4.05 0.01 0.0 0.0 38.6817305917 0 0
1 -2.025 2.025 0.0 0.01 0.0 0.0 38.6817305917 0 0
1 -2.025 2.025 4.05 0.01 0.0 0.0 38.6817305917 0 0
1 -2.025 0.0 2.025 0.01 0.0 0.0 38.6817305917 0 0
1 0.0 2.025 2.025 0.01 0.0 0.0 38.6817305917 0 0
1 -4.05 2.025 2.025 0.01 0.0 0.0 38.6817305917 0 0
1 -2.025 4.05 2.025 0.01 0.0 0.0 38.6817305917 0 0
1 -4.05 0.0 4.05 0.01 0.0 0.0 38.6817305917 0 0
1 0.0 0.0 4.05 0.01 0.0 0.0 38.6817305917 0 0
1 0.0 4.05 4.05 0.01 0.0 0.0 38.6817305917 0 0
1 -4.05 4.05 4.05 0.01 0.0 0.0 38.6817305917 0 0
1 -4.05 0.0 8.1 0.01 0.0 0.0 38.6817305917 0 0
1 0.0 0.0 8.1 0.01 0.0 0.0 38.6817305917 0 0
1 0.0 4.05 8.1 0.01 0.0 0.0 38.6817305917 0 0
1 -4.05 4.05 8.1 0.01 0.0 0.0 38.6817305917 0 0
1 -2.025 2.025 4.05 0.01 0.0 0.0 38.6817305917 0 0
1 -2.025 2.025 8.1 0.01 0.0 0.0 38.6817305917 0 0
1 -2.025 0.0 6.075 0.01 0.0 0.0 38.6817305917 0 0
1 0.0 2.025 6.075 0.01 0.0 0.0 38.6817305917 0 0
1 -4.05 2.025 6.075 0.01 0.0 0.0 38.6817305917 0 0
1 -2.025 4.05 6.075 0.01 0.0 0.0 38.6817305917 0 0
1 -4.05 4.05 0.0 0.01 0.0 0.0 38.6817305917 0 0
1 0.0 4.05 0.0 0.01 0.0 0.0 38.6817305917 0 0
1 0.0 8.1 0.0 0.01 0.0 0.0 38.6817305917 0 0
1 -4.05 8.1 0.0 0.01 0.0 0.0 38.6817305917 0 0
1 -4.05 4.05 4.05 0.01 0.0 0.0 38.6817305917 0 0
1 0.0 4.05 4.05 0.01 0.0 0.0 38.6817305917 0 0
1 0.0 8.1 4.05 0.01 0.0 0.0 38.6817305917 0 0
1 -4.05 8.1 4.05 0.01 0.0 0.0 38.6817305917 0 0
1 -2.025 6.075 0.0 0.01 0.0 0.0 38.6817305917 0 0
1 -2.025 6.075 4.05 0.01 0.0 0.0 38.6817305917 0 0
1 -2.025 4.05 2.025 0.01 0.0 0.0 38.6817305917 0 0
1 0.0 6.075 2.025 0.01 0.0 0.0 38.6817305917 0 0
1 -4.05 6.075 2.025 0.01 0.0 0.0 38.6817305917 0 0
1 -2.025 8.1 2.025 0.01 0.0 0.0 38.6817305917 0 0
1 -4.05 4.05 4.05 0.01 0.0 0.0 38.6817305917 0 0
1 0.0 4.05 4.05 0.01 0.0 0.0 38.6817305917 0 0
1 0.0 8.1 4.05 0.01 0.0 0.0 38.6817305917 0 0
1 -4.05 8.1 4.05 0.01 0.0 0.0 38.6817305917 0 0
1 -4.05 4.05 8.1 0.01 0.0 0.0 38.6817305917 0 0
1 0.0 4.05 8.1 0.01 0.0 0.0 38.6817305917 0 0
1 0.0 8.1 8.1 0.01 0.0 0.0 38.6817305917 0 0
1 -4.05 8.1 8.1 0.01 0.0 0.0 38.6817305917 0 0
1 -2.025 6.075 4.05 0.01 0.0 0.0 38.6817305917 0 0
1 -2.025 6.075 8.1 0.01 0.0 0.0 38.6817305917 0 0
1 -2.025 4.05 6.075 0.01 0.0 0.0 38.6817305917 0 0
1 0.0 6.075 6.075 0.01 0.0 0.0 38.6817305917 0 0
1 -4.05 6.075 6.075 0.01 0.0 0.0 38.6817305917 0 0
1 -2.025 8.1 6.075 0.01 0.0 0.0 38.6817305917 0 0
1 -8.1 0.0 8.1 0.01 0.0 0.0 38.6817305917 0 0
1 -4.05 0.0 8.1 0.01 0.0 0.0 38.6817305917 0 0
1 -4.05 4.05 8.1 0.01 0.0 0.0 38.6817305917 0 0
1 -8.1 4.05 8.1 0.01 0.0 0.0 38.6817305917 0 0
1 -8.1 0.0 12.15 0.01 0.0 0.0 38.6817305917 0 0
1 -4.05 0.0 12.15 0.01 0.0 0.0 38.6817305917 0 0
1 -4.05 4.05 12.15 0.01 0.0 0.0 38.6817305917 0 0
1 -8.1 4.05 12.15 0.01 0.0 0.0 38.6817305917 0 0
1 -6.075 2.025 8.1 0.01 0.0 0.0 38.6817305917 0 0
1 -6.075 2.025 12.15 0.01 0.0 0.0 38.6817305917 0 0
1 -6.075 0.0 10.125 0.01 0.0 0.0 38.6817305917 0 0
1 -4.05 2.025 10.125 0.01 0.0 0.0 38.6817305917 0 0
1 -8.1 2.025 10.125 0.01 0.0 0.0 38.6817305917 0 0
1 -6.075 4.05 10.125 0.01 0.0 0.0 38.6817305917 0 0
1 -8.1 0.0 12.15 0.01 0.0 0.0 38.6817305917 0 0
1 -4.05 0.0 12.15 0.01 0.0 0.0 38.6817305917 0 0
1 -4.05 4.05 12.15 0.01 0.0 0.0 38.6817305917 0 0
1 -8.1 4.05 12.15 0.01 0.0 0.0 38.6817305917 0 0
1 -8.1 0.0 16.2 0.01 0.0 0.0 38.6817305917 0 0
1 -4.05 0.0 16.2 0.01 0.0 0.0 38.6817305917 0 0
1 -4.05 4.05 16.2 0.01 0.0 0.0 38.6817305917 0 0
1 -8.1 4.05 16.2 0.01 0.0 0.0 38.6817305917 0 0
1 -6.075 2.025 12.15 0.01 0.0 0.0 38.6817305917 0 0
1 -6.075 2.025 16.2 0.01 0.0 0.0 38.6817305917 0 0
1 -6.075 0.0 14.175 0.01 0.0 0.0 38.6817305917 0 0
1 -4.05 2.025 14.175 0.01 0.0 0.0 38.6817305917 0 0
1 -8.1 2.025 14.175 0.01 0.0 0.0 38.6817305917 0 0
1 -6.075 4.05 14.175 0.01 0.0 0.0 38.6817305917 0 0
1 -8.1 4.05 8.1 0.01 0.0 0.0 38.6817305917 0 0
1 -4.05 4.05 8.1 0.01 0.0 0.0 38.6817305917 0 0
1 -4.05 8.1 8.1 0.01 0.0 0.0 38.6817305917 0 0
1 -8.1 8.1 8.1 0.01 0.0 0.0 38.6817305917 0 0
1 -8.1 4.05 12.15 0.01 0.0 0.0 38.6817305917 0 0
1 -4.05 4.05 12.15 0.01 0.0 0.0 38.6817305917 0 0
1 -4.05 8.1 12.15 0.01 0.0 0.0 38.6817305917 0 0
1 -8.1 8.1 12.15 0.01 0.0 0.0 38.6817305917 0 0
1 -6.075 6.075 8.1 0.01 0.0 0.0 38.6817305917 0 0
1 -6.075 6.075 12.15 0.01 0.0 0.0 38.6817305917 0 0
1 -6.075 4.05 10.125 0.01 0.0 0.0 38.6817305917 0 0
1 -4.05 6.075 10.125 0.01 0.0 0.0 38.6817305917 0 0