ITEM: TIMESTEP
0
ITEM: NUMBER OF ATOMS
4000
ITEM: BOX BOUNDS pp pp pp
-14.46 21.69
-14.46 21.69
-14.46 21.69
ITEM: ATOMS type x y z stdvq molarfraction chemicalmultp thermalmultp chemicalmultpbcc thermalmultpbcc
29 -14.46 -14.46 -14.46 0.01 0.0 1.0 38.6817305917 0.0 0.0
29 -12.6525 -12.6525 -14.46 0.01 0.0 1.0 38.6817305917 0.0 0.0
29 -14.46 -12.6525 -12.6525 0.01 0.0 1.0 38.6817305917 0.0 0.0
29 -12.6525 -14.46 -12.6525 0.01 0.0 1.0 38.6817305917 0.0 0.0
29 -14.46 -14.46 -10.845 0.01 0.0 1.0 38.6817305917 0.0 0.0
29 -12.6525 -12.6525 -10.845 0.01 0.0 1.0 38.6817305917 0.0 0.0
29 -14.46 -12.6525 -9.0375 0.01 0.0 1.0 38.6817305917 0.0 0.0
29 -12.6525 -14.46 -9.0375 0.01 0.0 1.0 38.6817305917 0.0 0.0
29 -14.46 -14.46 -7.23 0.01 0.0 1.0 38.6817305917 0.0 0.0
29 -12.6525 -12.6525 -7.23 0.01 0.0 1.0 38.6817305917 0.0 0.0
29 -14.46 -12.6525 -5.4225 0.01 0.0 1.0 38.6817305917 0.0 0.0
29 -12.6525 -14.46 -5.4225 0.01 0.0 1.0 38.6817305917 0.0 0.0
29 -14.46 -14.46 -3.615 0.01 0.0 1.0 38.6817305917 0.0 0.0
29 -12.6525 -12.6525 -3.615 0.01 0.0 1.0 38.6817305917 0.0 0.0
29 -14.46 -12.6525 -1.8075 0.01 0.0 1.0 38.6817305917 0.0 0.0
29 -12.6525 -14.46 -1.8075 0.01 0.0 1.0 38.6817305917 0.0 0.0
29 -14.46 -14.46 0.0 0.01 0.0 1.0 38.6817305917 0.0 0.0
29 -12.6525 -12.6525 0.0 0.01 0.0 1.0 38.6817305917 0.0 0.0
29 -14.46 -12.6525 1.8075 0.01 0.0 1.0 38.6817305917 0.0 0.0
29 -12.6525 -14.46 1.8075 0.01 0.0 1.0 38.6817305917 0.0 0.0
29 -14.46 -14.46 3.615 0.01 0.0 1.0 38.6817305917 0.0 0.0
29 -12.6525 -12.6525 3.615 0.01 0.0 1.0 38.6817305917 0.0 0.0
29 -14.46 -12.6525 5.4225 0.01 0.0 1.0 38.6817305917 0.0 0.0
29 -12.6525 -14.46 5.4225 0.01 0.0 1.0 38.6817305917 0.0 0.0
29 -14.46 -14.46 7.23 0.01 0.0 1.0 38.6817305917 0.0 0.0
29 -12.6525 -12.6525 7.23 0.01 0.0 1.0 38.6817305917 0.0 0.0
29 -14.46 -12.6525 9.0375 0.01 0.0 1.0 38.6817305917 0.0 0.0
29 -12.6525 -14.46 9.0375 0.01 0.0 1.0 38.6817305917 0.0 0.0
29 -14.46 -14.46 10.845 0.01 0.0 1.0 38.6817305917 0.0 0.0
29 -12.6525 -12.6525 10.845 0.01 0.0 1.0 38.6817305917 0.0 0.0
29 -14.46 -12.6525 12.6525 0.01 0.0 1.0 38.6817305917 0.0 0.0
29 -12.6525 -14.46 12.6525 0.01 0.0 1.0 38.6817305917 0.0 0.0
29 -14.46 -14.46 14.46 0.01 0.0 1.0 38.6817305917 0.0 0.0
29 -12.6525 -12.6525 14.46 0.01 0.0 1.0 38.6817305917 0.0 0.0
29 -14.46 -12.6525 16.2675 0.01 0.0 1.0 38.6817305917 0.0 0.0
29 -12.6525 -14.46 16.2675 0.01 0.0 1.0 38.6817305917 0.0 0.0
29 -14.46 -14.46 18.075 0.01 0.0 1.0 38.6817305917 0.0 0.0
29 -12.6525 -12.6525 18.075 0.01 0.0 1.0 38.6817305917 0.0 0.0
29 -14.46 -12.6525 19.8825 0.01 0.0 1.0 38.6817305917 0.0 0.0
29 -12.6525 -14.46 19.8825 0.01 0.0 1.0 38.6817305917 0.0 0.0
29 -14.46 -10.845 -14.46 0.01 0.0 1.0 38.6817305917 0.0 0.0
29 -12.6525 -9.0375 -14.46 0.01 0.0 1.0 38.6817305917 0.0 0.0
29 -14.46 -9.0375 -12.6525 0.01 0.0 1.0 38.6817305917 0.0 0.0
29 -12.6525 -10.845 -12.6525 0.01 0.0 1.0 38.6817305917 0.0 0.0
29 -14.46 -10.845 -10.845 0.01 0.0 1.0 38.6817305917 0.0 0.0
29 -12.6525 -9.0375 -10.845 0.01 0.0 1.0 38.6817305917 0.0 0.0
29 -14.46 -9.0375 -9.0375 0.01 0.0 1.0 38.6817305917 0.0 0.0
29 -12.6525 -10.845 -9.0375 0.01 0.0 1.0 38.6817305917 0.0 0.0
29 -14.46 -10.845 -7.23 0.01 0.0 1.0 38.6817305917 0.0 0.0
29 -12.6525 -9.0375 -7.23 0.01 0.0 1.0 38.6817305917 0.0 0.0
29 -14.46 -9.0375 -5.4225 0.01 0.0 1.0 38.6817305917 0.0 0.0
29 -12.6525 -10.845 -5.4225 0.01 0.0 1.0 38.6817305917 0.0 0.0
29 -14.46 -10.845 -3.615 0.01 0.0 1.0 38.6817305917 0.0 0.0
29 -12.6525 -9.0375 -3.615 0.01 0.0 1.0 38.6817305917 0.0 0.0
29 -14.46 -9.0375 -1.8075 0.01 0.0 1.0 38.6817305917 0.0 0.0
29 -12.6525 -10.845 -1.8075 0.01 0.0 1.0 38.6817305917 0.0 0.0
29 -14.46 -10.845 0.0 0.01 0.0 1.0 38.6817305917 0.0 0.0
29 -12.6525 -9.0375 0.0 0.01 0.0 1.0 38.6817305917 0.0 0.0
29 -14.46 -9.0375 1.8075 0.01 0.0 1.0 38.6817305917 0.0 0.0
29 -12.6525 -10.845 1.8075 0.01 0.0 1.0 38.6817305917 0.0 0.0
29 -14.46 -10.845 3.615 0.01 0.0 1.0 38.6817305917 0.0 0.0
29 -12.6525 -9.0375 3.615 0.01 0.0 1.0 38.6817305917 0.0 0.0
29 -14.46 -9.0375 5.4225 0.01 0.0 1.0 38.6817305917 0.0 0.0
29 -12.6525 -10.845 5.4225 0.01 0.0 1.0 38.6817305917 0.0 0.0
29 -14.46 -10.845 7.23 0.01 0.0 1.0 38.6817305917 0.0 0.0
29 -12.6525 -9.0375 7.23 0.01 0.0 1.0 38.6817305917 0.0 0.0
29 -14.46 -9.0375 9.0375 0.01 0.0 1.0 38.6817305917 0.0 0.0
29 -12.6525 -10.845 9.0375 0.01 0.0 1.0 38.6817305917 0.0 0.0
29 -14.46 -10.845 10.845 0.01 0.0 1.0 38.6817305917 0.0 0.0
29 -12.6525 -9.0375 10.845 0.01 0.0 1.0 38.6817305917 0.0 0.0
29 -14.46 -9.0375 12.6525 0.01 0.0 1.0 38.6817305917 0.0 0.0
29 -12.6525 -10.845 12.6525 0.01 0.0 1.0 38.6817305917 0.0 0.0
29 -14.46 -10.845 14.46 0.01 0.0 1.0 38.6817305917 0.0 0.0
29 -12.6525 -9.0375 14.46 0.01 0.0 1.0 38.6817305917 0.0 0.0
29 -14.46 -9.0375 16.2675 0.01 0.0 1.0 38.6817305917 0.0 0.0
29 -12.6525 -10.845 16.2675 0.01 0.0 1.0 38.6817305917 0.0 0.0
29 -14.46 -10.845 18.075 0.01 0.0 1.0 38.6817305917 0.0 0.0
29 -12.6525 -9.0375 18.075 0.01 0.0 1.0 38.6817305917 0.0 0.0
29 -14.46 -9.0375 19.8825 0.01 0.0 1.0 38.6817305917 0.0 0.0
29 -12.6525 -10.845 19.8825 0.01 0.0 1.0 38.6817305917 0.0 0.0
29 -14.46 -7.23 -14.46 0.01 0.0 1.0 38.6817305917 0.0 0.0
29 -12.6525 -5.4225 -14.46 0.01 0.0 1.0 38.6817305917 0.0 0.0
29 -14.46 -5.4225 -12.6525 0.01 0.0 1.0 38.6817305917 0.0 0.0
29 -12.6525 -7.23 -12.6525 0.01 0.0 1.0 38.6817305917 0.0 0.0
29 -14.46 -7.23 -10.845 0.01 0.0 1.0 38.6817305917 0.0 0.0
29 -12.6525 -5.4225 -10.845 0.01 0.0 1.0 38.6817305917 0.0 0.0
29 -14.46 -5.4225 -9.0375 0.01 0.0 1.0 38.6817305917 0.0 0.0
29 -12.6525 -7.23 -9.0375 0.01 0.0 1.0 38.6817305917 0.0 0.0
29 -14.46 -7.23 -7.23 0.01 0.0 1.0 38.6817305917 0.0 0.0
29 -12.6525 -5.4225 -7.23 0.01 0.0 1.0 38.6817305917 0.0 0.0
29 -14.46 -5.4225 -5.4225 0.01 0.0 1.0 38.6817305917 0.0 0.0
29 -12.6525 -7.23 -5.4225 0.01 0.0 1.0 38.6817305917 0.0 0.0
29 -14.46 -7.23 -3.615 0.01 0.0 1.0 38.6817305917 0.0 0.0
29 -12.6525 -5.4225 -3.615 0.01 0.0 1.0 38.6817305917 0.0 0.0
29 -14.46 -5.4225 -1.8075 0.01 0.0 1.0 38.6817305917 0.0 0.0
29 -12.6525 -7.23 -1.8075 0.01 0.0 1.0 38.6817305917 0.0 0.0
29 -14.46 -7.23 0.0 0.01 0.0 1.0 38.6817305917 0.0 0.0
29 -12.6525 -5.4225 0.0 0.01 0.0 1.0 38.6817305917 0.0 0.0
29 -14.46 -5.4225 1.8075 0.01 0.0 1.0 38.6817305917 0.0 0.0
29 -12.6525 -7.23 1.8075 0.01 0.0 1.0 38.6817305917 0.0 0.0
29 -14.46 -7.23 3.615 0.01 0.0 1.0 38.6817305917 0.0 0.0
29 -12.6525 -5.4225 3.615 0.01 0.0 1.0 38.6817305917 0.0 0.0
29 -14.46 -5.4225 5.4225 0.01 0.0 1.0 38.6817305917 0.0 0.0
29 -12.6525 -7.23 5.4225 0.01 0.0 1.0 38.6817305917 0.0 0.0
29 -14.46 -7.23 7.23 0.01 0.0 1.0 38.6817305917 0.0 0.0
29 -12.6525 -5.4225 7.23 0.01 0.0 1.0 38.6817305917 0.0 0.0
29 -14.46 -5.4225 9.0375 0.01 0.0 1.0 38.6817305917 0.0 0.0
29 -12.6525 -7.23 9.0375 0.01 0.0 1.0 38.6817305917 0.0 0.0
29 -14.46 -7.23 10.845 0.01 0.0 1.0 38.6817305917 0.0 0.0
29 -12.6525 -5.4225 10.845 0.01 0.0 1.0 38.6817305917 0.0 0.0
29 -14.46 -5.4225 12.6525 0.01 0.0 1.0 38.6817305917 0.0 0.0
29 -12.6525 -7.23 12.6525 0.01 0.0 1.0 38.6817305917 0.0 0.0
29 -14.46 -7.23 14.46 0.01 0.0 1.0 38.6817305917 0.0 0.0
29 -12.6525 -5.4225 14.46 0.01 0.0 1.0 38.6817305917 0.0 0.0
29 -14.46 -5.4225 16.2675 0.01 0.0 1.0 38.6817305917 0.0 0.0
29 -12.6525 -7.23 16.2675 0.01 0.0 1.0 38.6817305917 0.0 0.0
29 -14.46 -7.23 18.075 0.01 0.0 1.0 38.6817305917 0.0 0.0
29 -12.6525 -5.4225 18.075 0.01 0.0 1.0 38.6817305917 0.0 0.0
29 -14.46 -5.4225 19.8825 0.01 0.0 1.0 38.6817305917 0.0 0.0
29 -12.6525 -7.23 19.8825 0.01 0.0 1.0 38.6817305917 0.0 0.0
29 -14.46 -3.615 -14.46 0.01 0.0 1.0 38.6817305917 0.0 0.0
29 -12.6525 -1.8075 -14.46 0.01 0.0 1.0 38.6817305917 0.0 0.0
29 -14.46 -1.8075 -12.6525 0.01 0.0 1.0 38.6817305917 0.0 0.0
29 -12.6525 -3.615 -12.6525 0.01 0.0 1.0 38.6817305917 0.0 0.0
29 -14.46 -3.615 -10.845 0.01 0.0 1.0 38.6817305917 0.0 0.0
29 -12.6525 -1.8075 -10.845 0.01 0.0 1.0 38.6817305917 0.0 0.0
29 -14.46 -1.8075 -9.0375 0.01 0.0 1.0 38.6817305917 0.0 0.0
29 -12.6525 -3.615 -9.0375 0.01 0.0 1.0 38.6817305917 0.0 0.0
29 -14.46 -3.615 -7.23 0.01 0.0 1.0 38.6817305917 0.0 0.0
29 -12.6525 -1.8075 -7.23 0.01 0.0 1.0 38.6817305917 0.0 0.0
29 -14.46 -1.8075 -5.4225 0.01 0.0 1.0 38.6817305917 0.0 0.0
29 -12.6525 -3.615 -5.4225 0.01 0.0 1.0 38.6817305917 0.0 0.0
29 -14.46 -3.615 -3.615 0.01 0.0 1.0 38.6817305917 0.0 0.0
29 -12.6525 -1.8075 -3.615 0.01 0.0 1.0 38.6817305917 0.0 0.0
29 -14.46 -1.8075 -1.8075 0.01 0.0 1.0 38.6817305917 0.0 0.0
29 -12.6525 -3.615 -1.8075 0.01 0.0 1.0 38.6817305917 0.0 0.0
29 -14.46 -3.615 0.0 0.01 0.0 1.0 38.6817305917 0.0 0.0
29 -12.6525 -1.8075 0.0 0.01 0.0 1.0 38.6817305917 0.0 0.0
29 -14.46 -1.8075 1.8075 0.01 0.0 1.0 38.6817305917 0.0 0.0
29 -12.6525 -3.615 1.8075 0.01 0.0 1.0 38.6817305917 0.0 0.0
29 -14.46 -3.615 3.615 0.01 0.0 1.0 38.6817305917 0.0 0.0
29 -12.6525 -1.8075 3.615 0.01 0.0 1.0 38.6817305917 0.0 0.0
29 -14.46 -1.8075 5.4225 0.01 0.0 1.0 38.6817305917 0.0 0.0
29 -12.6525 -3.615 5.4225 0.01 0.0 1.0 38.6817305917 0.0 0.0
29 -14.46 -3.615 7.23 0.01 0.0 1.0 38.6817305917 0.0 0.0
29 -12.6525 -1.8075 7.23 0.01 0.0 1.0 38.6817305917 0.0 0.0
29 -14.46 -1.8075 9.0375 0.01 0.0 1.0 38.6817305917 0.0 0.0
29 -12.6525 -3.615 9.0375 0.01 0.0 1.0 38.6817305917 0.0 0.0
29 -14.46 -3.615 10.845 0.01 0.0 1.0 38.6817305917 0.0 0.0
29 -12.6525 -1.8075 10.845 0.01 0.0 1.0 38.6817305917 0.0 0.0
29 -14.46 -1.8075 12.6525 0.01 0.0 1.0 38.6817305917 0.0 0.0
29 -12.6525 -3.615 12.6525 0.01 0.0 1.0 38.6817305917 0.0 0.0
29 -14.46 -3.615 14.46 0.01 0.0 1.0 38.6817305917 0.0 0.0
29 -12.6525 -1.8075 14.46 0.01 0.0 1.0 38.6817305917 0.0 0.0
29 -14.46 -1.8075 16.2675 0.01 0.0 1.0 38.6817305917 0.0 0.0
29 -12.6525 -3.615 16.2675 0.01 0.0 1.0 38.6817305917 0.0 0.0
29 -14.46 -3.615 18.075 0.01 0.0 1.0 38.6817305917 0.0 0.0
29 -12.6525 -1.8075 18.075 0.01 0.0 1.0 38.6817305917 0.0 0.0
29 -14.46 -1.8075 19.8825 0.01 0.0 1.0 38.6817305917 0.0 0.0
29 -12.6525 -3.615 19.8825 0.01 0.0 1.0 38.6817305917 0.0 0.0
29 -14.46 0.0 -14.46 0.01 0.0 1.0 38.6817305917 0.0 0.0
29 -12.6525 1.8075 -14.46 0.01 0.0 1.0 38.6817305917 0.0 0.0
29 -14.46 1.8075 -12.6525 0.01 0.0 1.0 38.6817305917 0.0 0.0
29 -12.6525 0.0 -12.6525 0.01 0.0 1.0 38.6817305917 0.0 0.0
29 -14.46 0.0 -10.845 0.01 0.0 1.0 38.6817305917 0.0 0.0
29 -12.6525 1.8075 -10.845 0.01 0.0 1.0 38.6817305917 0.0 0.0
29 -14.46 1.8075 -9.0375 0.01 0.0 1.0 38.6817305917 0.0 0.0
29 -12.6525 0.0 -9.0375 0.01 0.0 1.0 38.6817305917 0.0 0.0
29 -14.46 0.0 -7.23 0.01 0.0 1.0 38.6817305917 0.0 0.0
29 -12.6525 1.8075 -7.23 0.01 0.0 1.0 38.6817305917 0.0 0.0
29 -14.46 1.8075 -5.4225 0.01 0.0 1.0 38.6817305917 0.0 0.0
29 -12.6525 0.0 -5.4225 0.01 0.0 1.0 38.6817305917 0.0 0.0
29 -14.46 0.0 -3.615 0.01 0.0 1.0 38.6817305917 0.0 0.0
29 -12.6525 1.8075 -3.615 0.01 0.0 1.0 38.6817305917 0.0 0.0
29 -14.46 1.8075 -1.8075 0.01 0.0 1.0 38.6817305917 0.0 0.0
29 -12.6525 0.0 -1.8075 0.01 0.0 1.0 38.6817305917 0.0 0.0
29 -14.46 0.0 0.0 0.01 0.0 1.0 38.6817305917 0.0 0.0
29 -12.6525 1.8075 0.0 0.01 0.0 1.0 38.6817305917 0.0 0.0
29 -14.46 1.8075 1.8075 0.01 0.0 1.0 38.6817305917 0.0 0.0
29 -12.6525 0.0 1.8075 0.01 0.0 1.0 38.6817305917 0.0 0.0
29 -14.46 0.0 3.615 0.01 0.0 1.0 38.6817305917 0.0 0.0
29 -12.6525 1.8075 3.615 0.01 0.0 1.0 38.6817305917 0.0 0.0
29 -14.46 1.8075 5.4225 0.01 0.0 1.0 38.6817305917 0.0 0.0
29 -12.6525 0.0 5.4225 0.01 0.0 1.0 38.6817305917 0.0 0.0
29 -14.46 0.0 7.23 0.01 0.0 1.0 38.6817305917 0.0 0.0
29 -12.6525 1.8075 7.23 0.01 0.0 1.0 38.6817305917 0.0 0.0
29 -14.46 1.8075 9.0375 0.01 0.0 1.0 38.6817305917 0.0 0.0
29 -12.6525 0.0 9.0375 0.01 0.0 1.0 38.6817305917 0.0 0.0
29 -14.46 0.0 10.845 0.01 0.0 1.0 38.6817305917 0.0 0.0
29 -12.6525 1.8075 10.845 0.01 0.0 1.0 38.6817305917 0.0 0.0
29 -14.46 1.8075 12.6525 0.01 0.0 1.0 38.6817305917 0.0 0.0
29 -12.6525 0.0 12.6525 0.01 0.0 1.0 38.6817305917 0.0 0.0
29 -14.46 0.0 14.46 0.01 0.0 1.0 38.6817305917 0.0 0.0
29 -12.6525 1.8075 14.46 0.01 0.0 1.0 38.6817305917 0.0 0.0
29 -14.46 1.8075 16.2675 0.01 0.0 1.0 38.6817305917 0.0 0.0
29 -12.6525 0.0 16.2675 0.01 0.0 1.0 38.6817305917 0.0 0.0
29 -14.46 0.0 18.075 0.01 0.0 1.0 38.6817305917 0.0 0.0
29 -12.6525 1.8075 18.075 0.01 0.0 1.0 38.6817305917 0.0 0.0
29 -14.46 1.8075 19.8825 0.01 0.0 1.0 38.6817305917 0.0 0.0
29 -12.6525 0.0 19.8825 0.01 0.0 1.0 38.6817305917 0.0 0.0
29 -14.46 3.615 -14.46 0.01 0.0 1.0 38.6817305917 0.0 0.0
29 -12.6525 5.4225 -14.46 0.01 0.0 1.0 38.6817305917 0.0 0.0
29 -14.46 5.4225 -12.6525 0.01 0.0 1.0 38.6817305917 0.0 0.0
29 -12.6525 3.615 -12.6525 0.01 0.0 1.0 38.6817305917 0.0 0.0
29 -14.46 3.615 -10.845 0.01 0.0 1.0 38.6817305917 0.0 0.0
29 -12.6525 5.4225 -10.845 0.01 0.0 1.0 38.6817305917 0.0 0.0
29 -14.46 5.4225 -9.0375 0.01 0.0 1.0 38.6817305917 0.0 0.0
29 -12.6525 3.615 -9.0375 0.01 0.0 1.0 38.6817305917 0.0 0.0
29 -14.46 3.615 -7.23 0.01 0.0 1.0 38.6817305917 0.0 0.0
29 -12.6525 5.4225 -7.23 0.01 0.0 1.0 38.6817305917 0.0 0.0
29 -14.46 5.4225 -5.4225 0.01 0.0 1.0 38.6817305917 0.0 0.0
29 -12.6525 3.615 -5.4225 0.01 0.0 1.0 38.6817305917 0.0 0.0
29 -14.46 3.615 -3.615 0.01 0.0 1.0 38.6817305917 0.0 0.0
29 -12.6525 5.4225 -3.615 0.01 0.0 1.0 38.6817305917 0.0 0.0
29 -14.46 5.4225 -1.8075 0.01 0.0 1.0 38.6817305917 0.0 0.0
29 -12.6525 3.615 -1.8075 0.01 0.0 1.0 38.6817305917 0.0 0.0
29 -14.46 3.615 0.0 0.01 0.0 1.0 38.6817305917 0.0 0.0
29 -12.6525 5.4225 0.0 0.01 0.0 1.0 38.6817305917 0.0 0.0
29 -14.46 5.4225 1.8075 0.01 0.0 1.0 38.6817305917 0.0 0.0
29 -12.6525 3.615 1.8075 0.01 0.0 1.0 38.6817305917 0.0 0.0
29 -14.46 3.615 3.615 0.01 0.0 1.0 38.6817305917 0.0 0.0
29 -12.6525 5.4225 3.615 0.01 0.0 1.0 38.6817305917 0.0 0.0
29 -14.46 5.4225 5.4225 0.01 0.0 1.0 38.6817305917 0.0 0.0
29 -12.6525 3.615 5.4225 0.01 0.0 1.0 38.6817305917 0.0 0.0
29 -14.46 3.615 7.23 0.01 0.0 1.0 38.6817305917 0.0 0.0
29 -12.6525 5.4225 7.23 0.01 0.0 1.0 38.6817305917 0.0 0.0
29 -14.46 5.4225 9.0375 0.01 0.0 1.0 38.6817305917 0.0 0.0
29 -12.6525 3.615 9.0375 0.01 0.0 1.0 38.6817305917 0.0 0.0
29 -14.46 3.615 10.845 0.01 0.0 1.0 38.6817305917 0.0 0.0
29 -12.6525 5.4225 10.845 0.01 0.0 1.0 38.6817305917 0.0 0.0
29 -14.46 5.4225 12.6525 0.01 0.0 1.0 38.6817305917 0.0 0.0
29 -12.6525 3.615 12.6525 0.01 0.0 1.0 38.6817305917 0.0 0.0
29 -14.46 3.615 14.46 0.01 0.0 1.0 38.6817305917 0.0 0.0
29 -12.6525 5.4225 14.46 0.01 0.0 1.0 38.6817305917 0.0 0.0
29 -14.46 5.4225 16.2675 0.01 0.0 1.0 38.6817305917 0.0 0.0
29 -12.6525 3.615 16.2675 0.01 0.0 1.0 38.6817305917 0.0 0.0
29 -14.46 3.615 18.075 0.01 0.0 1.0 38.6817305917 0.0 0.0
29 -12.6525 5.4225 18.075 0.01 0.0 1.0 38.6817305917 0.0 0.0
29 -14.46 5.4225 19.8825 0.01 0.0 1.0 38.6817305917 0.0 0.0
29 -12.6525 3.615 19.8825 0.01 0.0 1.0 38.6817305917 0.0 0.0
29 -14.46 7.23 -14.46 0.01 0.0 1.0 38.6817305917 0.0 0.0
29 -12.6525 9.0375 -14.46 0.01 0.0 1.0 38.6817305917 0.0 0.0
29 -14.46 9.0375 -12.6525 0.01 0.0 1.0 38.6817305917 0.0 0.0
29 -12.6525 7.23 -12.6525 0.01 0.0 1.0 38.6817305917 0.0 0.0
29 -14.46 7.23 -10.845 0.01 0.0 1.0 38.6817305917 0.0 0.0
29 -12.6525 9.0375 -10.845 0.01 0.0 1.0 38.6817305917 0.0 0.0
29 -14.46 9.0375 -9.0375 0.01 0.0 1.0 38.6817305917 0.0 0.0
29 -12.6525 7.23 -9.0375 0.01 0.0 1.0 38.6817305917 0.0 0.0
29 -14.46 7.23 -7.23 0.01 0.0 1.0 38.6817305917 0.0 0.0
29 -12.6525 9.0375 -7.23 0.01 0.0 1.0 38.6817305917 0.0 0.0
29 -14.46 9.0375 -5.4225 0.01 0.0 1.0 38.6817305917 0.0 0.0
29 -12.6525 7.23 -5.4225 0.01 0.0 1.0 38.6817305917 0.0 0.0
29 -14.46 7.23 -3.615 0.01 0.0 1.0 38.6817305917 0.0 0.0
29 -12.6525 9.0375 -3.615 0.01 0.0 1.0 38.6817305917 0.0 0.0
29 -14.46 9.0375 -1.8075 0.01 0.0 1.0 38.6817305917 0.0 0.0
29 -12.6525 7.23 -1.8075 0.01 0.0 1.0 38.6817305917 0.0 0.0
29 -14.46 7.23 0.0 0.01 0.0 1.0 38.6817305917 0.0 0.0
29 -12.6525 9.0375 0.0 0.01 0.0 1.0 38.6817305917 0.0 0.0
29 -14.46 9.0375 1.8075 0.01 0.0 1.0 38.6817305917 0.0 0.0
29 -12.6525 7.23 1.8075 0.01 0.0 1.0 38.6817305917 0.0 0.0
29 -14.46 7.23 3.615 0.01 0.0 1.0 38.6817305917 0.0 0.0
29 -12.6525 9.0375 3.615 0.01 0.0 1.0 38.6817305917 0.0 0.0
29 -14.46 9.0375 5.4225 0.01 0.0 1.0 38.6817305917 0.0 0.0
29 -12.6525 7.23 5.4225 0.01 0.0 1.0 38.6817305917 0.0 0.0
29 -14.46 7.23 7.23 0.01 0.0 1.0 38.6817305917 0.0 0.0
29 -12.6525 9.0375 7.23 0.01 0.0 1.0 38.6817305917 0.0 0.0
29 -14.46 9.0375 9.0375 0.01 0.0 1.0 38.6817305917 0.0 0.0
29 -12.6525 7.23 9.0375 0.01 0.0 1.0 38.6817305917 0.0 0.0
29 -14.46 7.23 10.845 0.01 0.0 1.0 38.6817305917 0.0 0.0
29 -12.6525 9.0375 10.845 0.01 0.0 1.0 38.6817305917 0.0 0.0
29 -14.46 9.0375 12.6525 0.01 0.0 1.0 38.6817305917 0.0 0.0
29 -12.6525 7.23 12.6525 0.01 0.0 1.0 38.6817305917 0.0 0.0
29 -14.46 7.23 14.46 0.01 0.0 1.0 38.6817305917 0.0 0.0
29 -12.6525 9.0375 14.46 0.01 0.0 1.0 38.6817305917 0.0 0.0
29 -14.46 9.0375 16.2675 0.01 0.0 1.0 38.6817305917 0.0 0.0
29 -12.6525 7.23 16.2675 0.01 0.0 1.0 38.6817305917 0.0 0.0
29 -14.46 7.23 18.075 0.01 0.0 1.0 38.6817305917 0.0 0.0
29 -12.6525 9.0375 18.075 0.01 0.0 1.0 38.6817305917 0.0 0.0
29 -14.46 9.0375 19.8825 0.01 0.0 1.0 38.6817305917 0.0 0.0
29 -12.6525 7.23 19.8825 0.01 0.0 1.0 38.6817305917 0.0 0.0
29 -14.46 10.845 -14.46 0.01 0.0 1.0 38.6817305917 0.0 0.0
29 -12.6525 12.6525 -14.46 0.01 0.0 1.0 38.6817305917 0.0 0.0
29 -14.46 12.6525 -12.6525 0.01 0.0 1.0 38.6817305917 0.0 0.0
29 -12.6525 10.845 -12.6525 0.01 0.0 1.0 38.6817305917 0.0 0.0
29 -14.46 10.845 -10.845 0.01 0.0 1.0 38.6817305917 0.0 0.0
29 -12.6525 12.6525 -10.845 0.01 0.0 1.0 38.6817305917 0.0 0.0
29 -14.46 12.6525 -9.0375 0.01 0.0 1.0 38.6817305917 0.0 0.0
29 -12.6525 10.845 -9.0375 0.01 0.0 1.0 38.6817305917 0.0 0.0
29 -14.46 10.845 -7.23 0.01 0.0 1.0 38.6817305917 0.0 0.0
29 -12.6525 12.6525 -7.23 0.01 0.0 1.0 38.6817305917 0.0 0.0
29 -14.46 12.6525 -5.4225 0.01 0.0 1.0 38.6817305917 0.0 0.0
29 -12.6525 10.845 -5.4225 0.01 0.0 1.0 38.6817305917 0.0 0.0
29 -14.46 10.845 -3.615 0.01 0.0 1.0 38.6817305917 0.0 0.0
29 -12.6525 12.6525 -3.615 0.01 0.0 1.0 38.6817305917 0.0 0.0
29 -14.46 12.6525 -1.8075 0.01 0.0 1.0 38.6817305917 0.0 0.0
29 -12.6525 10.845 -1.8075 0.01 0.0 1.0 38.6817305917 0.0 0.0
29 -14.46 10.845 0.0 0.01 0.0 1.0 38.6817305917 0.0 0.0
29 -12.6525 12.6525 0.0 0.01 0.0 1.0 38.6817305917 0.0 0.0
29 -14.46 12.6525 1.8075 0.01 0.0 1.0 38.6817305917 0.0 0.0
29 -12.6525 10.845 1.8075 0.01 0.0 1.0 38.6817305917 0.0 0.0
29 -14.46 10.845 3.615 0.01 0.0 1.0 38.6817305917 0.0 0.0
29 -12.6525 12.6525 3.615 0.01 0.0 1.0 38.6817305917 0.0 0.0
29 -14.46 12.6525 5.4225 0.01 0.0 1.0 38.6817305917 0.0 0.0
29 -12.6525 10.845 5.4225 0.01 0.0 1.0 38.6817305917 0.0 0.0
29 -14.46 10.845 7.23 0.01 0.0 1.0 38.6817305917 0.0 0.0
29 -12.6525 12.6525 7.23 0.01 0.0 1.0 38.6817305917 0.0 0.0
29 -14.46 12.6525 9.0375 0.01 0.0 1.0 38.6817305917 0.0 0.0
29 -12.6525 10.845 9.0375 0.01 0.0 1.0 38.6817305917 0.0 0.0
29 -14.46 10.845 10.845 0.01 0.0 1.0 38.6817305917 0.0 0.0
29 -12.6525 12.6525 10.845 0.01 0.0 1.0 38.6817305917 0.0 0.0
29 -14.46 12.6525 12.6525 0.01 0.0 1.0 38.6817305917 0.0 0.0
29 -12.6525 10.845 12.6525 0.01 0.0 1.0 38.6817305917 0.0 0.0
29 -14.46 10.845 14.46 0.01 0.0 1.0 38.6817305917 0.0 0.0
29 -12.6525 12.6525 14.46 0.01 0.0 1.0 38.6817305917 0.0 0.0
29 -14.46 12.6525 16.2675 0.01 0.0 1.0 38.6817305917 0.0 0.0
29 -12.6525 10.845 16.2675 0.01 0.0 1.0 38.6817305917 0.0 0.0
29 -14.46 10.845 18.075 0.01 0.0 1.0 38.6817305917 0.0 0.0
29 -12.6525 12.6525 18.075 0.01 0.0 1.0 38.6817305917 0.0 0.0
29 -14.46 12.6525 19.8825 0.01 0.0 1.0 38.6817305917 0.0 0.0
29 -12.6525 10.845 19.8825 0.01 0.0 1.0 38.6817305917 0.0 0.0
29 -14.46 14.46 -14.46 0.01 0.0 1.0 38.6817305917 0.0 0.0
29 -12.6525 16.2675 -14.46 0.01 0.0 1.0 38.6817305917 0.0 0.0
29 -14.46 16.2675 -12.6525 0.01 0.0 1.0 38.6817305917 0.0 0.0
29 -12.6525 14.46 -12.6525 0.01 0.0 1.0 38.6817305917 0.0 0.0
29 -14.46 14.46 -10.845 0.01 0.0 1.0 38.6817305917 0.0 0.0
29 -12.6525 16.2675 -10.845 0.01 0.0 1.0 38.6817305917 0.0 0.0
29 -14.46 16.2675 -9.0375 0.01 0.0 1.0 38.6817305917 0.0 0.0
29 -12.6525 14.46 -9.0375 0.01 0.0 1.0 38.6817305917 0.0 0.0
29 -14.46 14.46 -7.23 0.01 0.0 1.0 38.6817305917 0.0 0.0
29 -12.6525 16.2675 -7.23 0.01 0.0 1.0 38.6817305917 0.0 0.0
29 -14.46 16.2675 -5.4225 0.01 0.0 1.0 38.6817305917 0.0 0.0
29 -12.6525 14.46 -5.4225 0.01 0.0 1.0 38.6817305917 0.0 0.0
29 -14.46 14.46 -3.615 0.01 0.0 1.0 38.6817305917 0.0 0.0
29 -12.6525 16.2675 -3.615 0.01 0.0 1.0 38.6817305917 0.0 0.0
29 -14.46 16.2675 -1.8075 0.01 0.0 1.0 38.6817305917 0.0 0.0
29 -12.6525 14.46 -1.8075 0.01 0.0 1.0 38.6817305917 0.0 0.0
29 -14.46 14.46 0.0 0.01 0.0 1.0 38.6817305917 0.0 0.0
29 -12.6525 16.2675 0.0 0.01 0.0 1.0 38.6817305917 0.0 0.0
29 -14.46 16.2675 1.8075 0.01 0.0 1.0 38.6817305917 0.0 0.0
29 -12.6525 14.46 1.8075 0.01 0.0 1.0 38.6817305917 0.0 0.0
29 -14.46 14.46 3.615 0.01 0.0 1.0 38.6817305917 0.0 0.0
29 -12.6525 16.2675 3.615 0.01 0.0 1.0 38.6817305917 0.0 0.0
29 -14.46 16.2675 5.4225 0.01 0.0 1.0 38.6817305917 0.0 0.0
29 -12.6525 14.46 5.4225 0.01 0.0 1.0 38.6817305917 0.0 0.0
29 -14.46 14.46 7.23 0.01 0.0 1.0 38.6817305917 0.0 0.0
29 -12.6525 16.2675 7.23 0.01 0.0 1.0 38.6817305917 0.0 0.0
29 -14.46 16.2675 9.0375 0.01 0.0 1.0 38.6817305917 0.0 0.0
29 -12.6525 14.46 9.0375 0.01 0.0 1.0 38.6817305917 0.0 0.0
29 -14.46 14.46 10.845 0.01 0.0 1.0 38.6817305917 0.0 0.0
29 -12.6525 16.2675 10.845 0.01 0.0 1.0 38.6817305917 0.0 0.0
29 -14.46 16.2675 12.6525 0.01 0.0 1.0 38.6817305917 0.0 0.0
29 -12.6525 14.46 12.6525 0.01 0.0 1.0 38.6817305917 0.0 0.0
29 -14.46 14.46 14.46 0.01 0.0 1.0 38.6817305917 0.0 0.0
29 -12.6525 16.2675 14.46 0.01 0.0 1.0 38.6817305917 0.0 0.0
29 -14.46 16.2675 16.2675 0.01 0.0 1.0 38.6817305917 0.0 0.0
29 -12.6525 14.46 16.2675 0.01 0.0 1.0 38.6817305917 0.0 0.0
29 -14.46 14.46 18.075 0.01 0.0 1.0 38.6817305917 0.0 0.0
29 -12.6525 16.2675 18.075 0.01 0.0 1.0 38.6817305917 0.0 0.0
29 -14.46 16.2675 19.8825 0.01 0.0 1.0 38.6817305917 0.0 0.0
29 -12.6525 14.46 19.8825 0.01 0.0 1.0 38.6817305917 0.0 0.0
29 -14.46 18.075 -14.46 0.01 0.0 1.0 38.6817305917 0.0 0.0
29 -12.6525 19.8825 -14.46 0.01 0.0 1.0 38.6817305917 0.0 0.0
29 -14.46 19.8825 -12.6525 0.01 0.0 1.0 38.6817305917 0.0 0.0
29 -12.6525 18.075 -12.6525 0.01 0.0 1.0 38.6817305917 0.0 0.0
29 -14.46 18.075 -10.845 0.01 0.0 1.0 38.6817305917 0.0 0.0
29 -12.6525 19.8825 -10.845 0.01 0.0 1.0 38.6817305917 0.0 0.0
29 -14.46 19.8825 -9.0375 0.01 0.0 1.0 38.6817305917 0.0 0.0
29 -12.6525 18.075 -9.0375 0.01 0.0 1.0 38.6817305917 0.0 0.0
29 -14.46 18.075 -7.23 0.01 0.0 1.0 38.6817305917 0.0 0.0
29 -12.6525 19.8825 -7.23 0.01 0.0 1.0 38.6817305917 0.0 0.0
29 -14.46 19.8825 -5.4225 0.01 0.0 1.0 38.6817305917 0.0 0.0
29 -12.6525 18.075 -5.4225 0.01 0.0 1.0 38.6817305917 0.0 0.0
29 -14.46 18.075 -3.615 0.01 0.0 1.0 38.6817305917 0.0 0.0
29 -12.6525 19.8825 -3.615 0.01 0.0 1.0 38.6817305917 0.0 0.0
29 -14.46 19.8825 -1.8075 0.01 0.0 1.0 38.6817305917 0.0 0.0
29 -12.6525 18.075 -1.8075 0.01 0.0 1.0 38.6817305917 0.0 0.0
29 -14.46 18.075 0.0 0.01 0.0 1.0 38.6817305917 0.0 0.0
29 -12.6525 19.8825 0.0 0.01 0.0 1.0 38.6817305917 0.0 0.0
29 -14.46 19.8825 1.8075 0.01 0.0 1.0 38.6817305917 0.0 0.0
29 -12.6525 18.075 1.8075 0.01 0.0 1.0 38.6817305917 0.0 0.0
29 -14.46 18.075 3.615 0.01 0.0 1.0 38.6817305917 0.0 0.0
29 -12.6525 19.8825 3.615 0.01 0.0 1.0 38.6817305917 0.0 0.0
29 -14.46 19.8825 5.4225 0.01 0.0 1.0 38.6817305917 0.0 0.0
29 -12.6525 18.075 5.4225 0.01 0.0 1.0 38.6817305917 0.0 0.0
29 -14.46 18.075 7.23 0.01 0.0 1.0 38.6817305917 0.0 0.0
29 -12.6525 19.8825 7.23 0.01 0.0 1.0 38.6817305917 0.0 0.0
29 -14.46 19.8825 9.0375 0.01 0.0 1.0 38.6817305917 0.0 0.0
29 -12.6525 18.075 9.0375 0.01 0.0 1.0 38.6817305917 0.0 0.0
29 -14.46 18.075 10.845 0.01 0.0 1.0 38.6817305917 0.0 0.0
29 -12.6525 19.8825 10.845 0.01 0.0 1.0 38.6817305917 0.0 0.0
29 -14.46 19.8825 12.6525 0.01 0.0 1.0 38.6817305917 0.0 0.0
29 -12.6525 18.075 12.6525 0.01 0.0 1.0 38.6817305917 0.0 0.0
29 -14.46 18.075 14.46 0.01 0.0 1.0 38.6817305917 0.0 0.0
29 -12.6525 19.8825 14.46 0.01 0.0 1.0 38.6817305917 0.0 0.0
29 -14.46 19.8825 16.2675 0.01 0.0 1.0 38.6817305917 0.0 0.0
29 -12.6525 18.075 16.2675 0.01 0.0 1.0 38.6817305917 0.0 0.0
29 -14.46 18.075 18.075 0.01 0.0 1.0 38.6817305917 0.0 0.0
29 -12.6525 19.8825 18.075 0.01 0.0 1.0 38.6817305917 0.0 0.0
29 -14.46 19.8825 19.8825 0.01 0.0 1.0 38.6817305917 0.0 0.0
29 -12.6525 18.075 19.8825 0.01 0.0 1.0 38.6817305917 0.0 0.0
29 -10.845 -14.46 -14.46 0.01 0.0 1.0 38.6817305917 0.0 0.0
29 -9.0375 -12.6525 -14.46 0.01 0.0 1.0 38.6817305917 0.0 0.0
29 -10.845 -12.6525 -12.6525 0.01 0.0 1.0 38.6817305917 0.0 0.0
29 -9.0375 -14.46 -12.6525 0.01 0.0 1.0 38.6817305917 0.0 0.0
29 -10.845 -14.46 -10.845 0.01 0.0 1.0 38.6817305917 0.0 0.0
29 -9.0375 -12.6525 -10.845 0.01 0.0 1.0 38.6817305917 0.0 0.0
29 -10.845 -12.6525 -9.0375 0.01 0.0 1.0 38.6817305917 0.0 0.0
29 -9.0375 -14.46 -9.0375 0.01 0.0 1.0 38.6817305917 0.0 0.0
29 -10.845 -14.46 -7.23 0.01 0.0 1.0 38.6817305917 0.0 0.0
29 -9.0375 -12.6525 -7.23 0.01 0.0 1.0 38.6817305917 0.0 0.0
29 -10.845 -12.6525 -5.4225 0.01 0.0 1.0 38.6817305917 0.0 0.0
29 -9.0375 -14.46 -5.4225 0.01 0.0 1.0 38.6817305917 0.0 0.0
29 -10.845 -14.46 -3.615 0.01 0.0 1.0 38.6817305917 0.0 0.0
29 -9.0375 -12.6525 -3.615 0.01 0.0 1.0 38.6817305917 0.0 0.0
29 -10.845 -12.6525 -1.8075 0.01 0.0 1.0 38.6817305917 0.0 0.0
29 -9.0375 -14.46 -1.8075 0.01 0.0 1.0 38.6817305917 0.0 0.0
29 -10.845 -14.46 0.0 0.01 0.0 1.0 38.6817305917 0.0 0.0
29 -9.0375 -12.6525 0.0 0.01 0.0 1.0 38.6817305917 0.0 0.0
29 -10.845 -12.6525 1.8075 0.01 0.0 1.0 38.6817305917 0.0 0.0
29 -9.0375 -14.46 1.8075 0.01 0.0 1.0 38.6817305917 0.0 0.0
29 -10.845 -14.46 3.615 0.01 0.0 1.0 38.6817305917 0.0 0.0
29 -9.0375 -12.6525 3.615 0.01 0.0 1.0 38.6817305917 0.0 0.0
29 -10.845 -12.6525 5.4225 0.01 0.0 1.0 38.6817305917 0.0 0.0
29 -9.0375 -14.46 5.4225 0.01 0.0 1.0 38.6817305917 0.0 0.0
29 -10.845 -14.46 7.23 0.01 0.0 1.0 38.6817305917 0.0 0.0
29 -9.0375 -12.6525 7.23 0.01 0.0 1.0 38.6817305917 0.0 0.0
29 -10.845 -12.6525 9.0375 0.01 0.0 1.0 38.6817305917 0.0 0.0
29 -9.0375 -14.46 9.0375 0.01 0.0 1.0 38.6817305917 0.0 0.0
29 -10.845 -14.46 10.845 0.01 0.0 1.0 38.6817305917 0.0 0.0
29 -9.0375 -12.6525 10.845 0.01 0.0 1.0 38.6817305917 0.0 0.0
29 -10.845 -12.6525 12.6525 0.01 0.0 1.0 38.6817305917 0.0 0.0
29 -9.0375 -14.46 12.6525 0.01 0.0 1.0 38.6817305917 0.0 0.0
29 -10.845 -14.46 14.46 0.01 0.0 1.0 38.6817305917 0.0 0.0
29 -9.0375 -12.6525 14.46 0.01 0.0 1.0 38.6817305917 0.0 0.0
29 -10.845 -12.6525 16.2675 0.01 0.0 1.0 38.6817305917 0.0 0.0
29 -9.0375 -14.46 16.2675 0.01 0.0 1.0 38.6817305917 0.0 0.0
29 -10.845 -14.46 18.075 0.01 0.0 1.0 38.6817305917 0.0 0.0
29 -9.0375 -12.6525 18.075 0.01 0.0 1.0 38.6817305917 0.0 0.0
29 -10.845 -12.6525 19.8825 0.01 0.0 1.0 38.6817305917 0.0 0.0
29 -9.0375 -14.46 19.8825 0.01 0.0 1.0 38.6817305917 0.0 0.0
29 -10.845 -10.845 -14.46 0.01 0.0 1.0 38.6817305917 0.0 0.0
29 -9.0375 -9.0375 -14.46 0.01 0.0 1.0 38.6817305917 0.0 0.0
29 -10.845 -9.0375 -12.6525 0.01 0.0 1.0 38.6817305917 0.0 0.0
29 -9.0375 -10.845 -12.6525 0.01 0.0 1.0 38.6817305917 0.0 0.0
29 -10.845 -10.845 -10.845 0.01 0.0 1.0 38.6817305917 0.0 0.0
29 -9.0375 -9.0375 -10.845 0.01 0.0 1.0 38.6817305917 0.0 0.0
29 -10.845 -9.0375 -9.0375 0.01 0.0 1.0 38.6817305917 0.0 0.0
29 -9.0375 -10.845 -9.0375 0.01 0.0 1.0 38.6817305917 0.0 0.0
29 -10.845 -10.845 -7.23 0.01 0.0 1.0 38.6817305917 0.0 0.0
29 -9.0375 -9.0375 -7.23 0.01 0.0 1.0 38.6817305917 0.0 0.0
29 -10.845 -9.0375 -5.4225 0.01 0.0 1.0 38.6817305917 0.0 0.0
29 -9.0375 -10.845 -5.4225 0.01 0.0 1.0 38.6817305917 0.0 0.0
29 -10.845 -10.845 -3.615 0.01 0.0 1.0 38.6817305917 0.0 0.0
29 -9.0375 -9.0375 -3.615 0.01 0.0 1.0 38.6817305917 0.0 0.0
29 -10.845 -9.0375 -1.8075 0.01 0.0 1.0 38.6817305917 0.0 0.0
29 -9.0375 -10.845 -1.8075 0.01 0.0 1.0 38.6817305917 0.0 0.0
29 -10.845 -10.845 0.0 0.01 0.0 1.0 38.6817305917 0.0 0.0
29 -9.0375 -9.0375 0.0 0.01 0.0 1.0 38.6817305917 0.0 0.0
29 -10.845 -9.0375 1.8075 0.01 0.0 1.0 38.6817305917 0.0 0.0
29 -9.0375 -10.845 1.8075 0.01 0.0 1.0 38.6817305917 0.0 0.0
29 -10.845 -10.845 3.615 0.01 0.0 1.0 38.6817305917 0.0 0.0
29 -9.0375 -9.0375 3.615 0.01 0.0 1.0 38.6817305917 0.0 0.0
29 -10.845 -9.0375 5.4225 0.01 0.0 1.0 38.6817305917 0.0 0.0
29 -9.0375 -10.845 5.4225 0.01 0.0 1.0 38.6817305917 0.0 0.0
29 -10.845 -10.845 7.23 0.01 0.0 1.0 38.6817305917 0.0 0.0
29 -9.0375 -9.0375 7.23 0.01 0.0 1.0 38.6817305917 0.0 0.0
29 -10.845 -9.0375 9.0375 0.01 0.0 1.0 38.6817305917 0.0 0.0
29 -9.0375 -10.845 9.0375 0.01 0.0 1.0 38.6817305917 0.0 0.0
29 -10.845 -10.845 10.845 0.01 0.0 1.0 38.6817305917 0.0 0.0
29 -9.0375 -9.0375 10.845 0.01 0.0 1.0 38.6817305917 0.0 0.0
29 -10.845 -9.0375 12.6525 0.01 0.0 1.0 38.6817305917 0.0 0.0
29 -9.0375 -10.845 12.6525 0.01 0.0 1.0 38.6817305917 0.0 0.0
29 -10.845 -10.845 14.46 0.01 0.0 1.0 38.6817305917 0.0 0.0
29 -9.0375 -9.0375 14.46 0.01 0.0 1.0 38.6817305917 0.0 0.0
29 -10.845 -9.0375 16.2675 0.01 0.0 1.0 38.6817305917 0.0 0.0
29 -9.0375 -10.845 16.2675 0.01 0.0 1.0 38.6817305917 0.0 0.0
29 -10.845 -10.845 18.075 0.01 0.0 1.0 38.6817305917 0.0 0.0
29 -9.0375 -9.0375 18.075 0.01 0.0 1.0 38.6817305917 0.0 0.0
29 -10.845 -9.0375 19.8825 0.01 0.0 1.0 38.6817305917 0.0 0.0
29 -9.0375 -10.845 19.8825 0.01 0.0 1.0 38.6817305917 0.0 0.0
29 -10.845 -7.23 -14.46 0.01 0.0 1.0 38.6817305917 0.0 0.0
29 -9.0375 -5.4225 -14.46 0.01 0.0 1.0 38.6817305917 0.0 0.0
29 -10.845 -5.4225 -12.6525 0.01 0.0 1.0 38.6817305917 0.0 0.0
29 -9.0375 -7.23 -12.6525 0.01 0.0 1.0 38.6817305917 0.0 0.0
29 -10.845 -7.23 -10.845 0.01 0.0 1.0 38.6817305917 0.0 0.0
29 -9.0375 -5.4225 -10.845 0.01 0.0 1.0 38.6817305917 0.0 0.0
29 -10.845 -5.4225 -9.0375 0.01 0.0 1.0 38.6817305917 0.0 0.0
29 -9.0375 -7.23 -9.0375 0.01 0.0 1.0 38.6817305917 0.0 0.0
29 -10.845 -7.23 -7.23 0.01 0.0 1.0 38.6817305917 0.0 0.0
29 -9.0375 -5.4225 -7.23 0.01 0.0 1.0 38.6817305917 0.0 0.0
29 -10.845 -5.4225 -5.4225 0.01 0.0 1.0 38.6817305917 0.0 0.0
29 -9.0375 -7.23 -5.4225 0.01 0.0 1.0 38.6817305917 0.0 0.0
29 -10.845 -7.23 -3.615 0.01 0.0 1.0 38.6817305917 0.0 0.0
29 -9.0375 -5.4225 -3.615 0.01 0.0 1.0 38.6817305917 0.0 0.0