ITEM: TIMESTEP
0
ITEM: NUMBER OF ATOMS
6
ITEM: BOX BOUNDS pp pp pp
0.0000000000000 4.4584488003783
0.0000000000000 4.4584488003783
0.0000000000000 2.9886451713504
ITEM: ATOMS id type site x y z
1 1 -1 0.8757489394646 3.5826998609137 1.4943225856752
2 1 -1 3.1049733396538 1.3534754607245 0.0000000000000
3 2  2 0.0000000000000 0.0000000000000 0.0000000000000
4 2  2 1.7514978789293 2.7069509214490 0.0000000000000
5 2  2 2.2292244001892 0.4777265212599 1.4943225856752
6 2  2 3.9807222791185 2.2292244001892 1.4943225856752

