ITEM: TIMESTEP
0
ITEM: NUMBER OF ATOMS
16
ITEM: BOX BOUNDS pp pp pp
0.0000000000000000e+00 3.1890000000000001e+00
0.0000000000000000e+00 5.5235100253371492e+00
0.0000000000000000e+00 5.2076151931570367e+00
ITEM: ATOMS id type site x y z 
1  1 -1 0.000000 0.000000 0.00000 
2  1 -1 0.000000 1.841170 2.60381 
3  1 -1 1.594500 2.761760 0.00000 
4  1 -1 1.594500 4.602930 2.60381 
5  2  2 1.594500 0.920585 1.30190 
6  2  2 0.000000 3.682340 1.30190 
7  2  2 1.594500 0.920585 3.90571 
8  2  2 0.000000 3.682340 3.90571 
9  2  1 0.000000 0.000000 1.95286
10 2  1 0.000000 0.000000 3.25476 
11 2  1 1.594500 2.761760 1.95286 
12 2  1 1.594500 2.761760 3.25476 
13 2  1 0.000000 1.841170 0.65095 
14 2  1 0.000000 1.841170 4.55666 
15 2  1 1.594500 4.602920 0.65095 
16 2  1 1.594500 4.602920 4.55666 