ITEM: TIMESTEP
0
ITEM: NUMBER OF ATOMS
62500
ITEM: BOX BOUNDS pp pp pp
-48.552 52.598
-48.552 52.598
-48.552 52.598
ITEM: ATOMS type x y z Stdvq Molarfraction chemicalmultp thermalmultp chemicalmultpbcc thermalmultpbcc
13 -48.552 -48.552 -48.552 0.01 0.0 1.0 38.6817305917 0.0 0.0
13 -46.529 -46.529 -48.552 0.01 0.0 1.0 38.6817305917 0.0 0.0
13 -48.552 -46.529 -46.529 0.01 0.0 1.0 38.6817305917 0.0 0.0
13 -46.529 -48.552 -46.529 0.01 0.0 1.0 38.6817305917 0.0 0.0
13 -48.552 -48.552 -44.506 0.01 0.0 1.0 38.6817305917 0.0 0.0
13 -46.529 -46.529 -44.506 0.01 0.0 1.0 38.6817305917 0.0 0.0
13 -48.552 -46.529 -42.483 0.01 0.0 1.0 38.6817305917 0.0 0.0
13 -46.529 -48.552 -42.483 0.01 0.0 1.0 38.6817305917 0.0 0.0
13 -48.552 -48.552 -40.46 0.01 0.0 1.0 38.6817305917 0.0 0.0
13 -46.529 -46.529 -40.46 0.01 0.0 1.0 38.6817305917 0.0 0.0
13 -48.552 -46.529 -38.437 0.01 0.0 1.0 38.6817305917 0.0 0.0
13 -46.529 -48.552 -38.437 0.01 0.0 1.0 38.6817305917 0.0 0.0
13 -48.552 -48.552 -36.414 0.01 0.0 1.0 38.6817305917 0.0 0.0
13 -46.529 -46.529 -36.414 0.01 0.0 1.0 38.6817305917 0.0 0.0
13 -48.552 -46.529 -34.391 0.01 0.0 1.0 38.6817305917 0.0 0.0
13 -46.529 -48.552 -34.391 0.01 0.0 1.0 38.6817305917 0.0 0.0
13 -48.552 -48.552 -32.368 0.01 0.0 1.0 38.6817305917 0.0 0.0
13 -46.529 -46.529 -32.368 0.01 0.0 1.0 38.6817305917 0.0 0.0
13 -48.552 -46.529 -30.345 0.01 0.0 1.0 38.6817305917 0.0 0.0
13 -46.529 -48.552 -30.345 0.01 0.0 1.0 38.6817305917 0.0 0.0
13 -48.552 -48.552 -28.322 0.01 0.0 1.0 38.6817305917 0.0 0.0
13 -46.529 -46.529 -28.322 0.01 0.0 1.0 38.6817305917 0.0 0.0
13 -48.552 -46.529 -26.299 0.01 0.0 1.0 38.6817305917 0.0 0.0
13 -46.529 -48.552 -26.299 0.01 0.0 1.0 38.6817305917 0.0 0.0
13 -48.552 -48.552 -24.276 0.01 0.0 1.0 38.6817305917 0.0 0.0
13 -46.529 -46.529 -24.276 0.01 0.0 1.0 38.6817305917 0.0 0.0
13 -48.552 -46.529 -22.253 0.01 0.0 1.0 38.6817305917 0.0 0.0
13 -46.529 -48.552 -22.253 0.01 0.0 1.0 38.6817305917 0.0 0.0
13 -48.552 -48.552 -20.23 0.01 0.0 1.0 38.6817305917 0.0 0.0
13 -46.529 -46.529 -20.23 0.01 0.0 1.0 38.6817305917 0.0 0.0
13 -48.552 -46.529 -18.207 0.01 0.0 1.0 38.6817305917 0.0 0.0
13 -46.529 -48.552 -18.207 0.01 0.0 1.0 38.6817305917 0.0 0.0
13 -48.552 -48.552 -16.184 0.01 0.0 1.0 38.6817305917 0.0 0.0
13 -46.529 -46.529 -16.184 0.01 0.0 1.0 38.6817305917 0.0 0.0
13 -48.552 -46.529 -14.161 0.01 0.0 1.0 38.6817305917 0.0 0.0
13 -46.529 -48.552 -14.161 0.01 0.0 1.0 38.6817305917 0.0 0.0
13 -48.552 -48.552 -12.138 0.01 0.0 1.0 38.6817305917 0.0 0.0
13 -46.529 -46.529 -12.138 0.01 0.0 1.0 38.6817305917 0.0 0.0
13 -48.552 -46.529 -10.115 0.01 0.0 1.0 38.6817305917 0.0 0.0
13 -46.529 -48.552 -10.115 0.01 0.0 1.0 38.6817305917 0.0 0.0
13 -48.552 -48.552 -8.092 0.01 0.0 1.0 38.6817305917 0.0 0.0
13 -46.529 -46.529 -8.092 0.01 0.0 1.0 38.6817305917 0.0 0.0
13 -48.552 -46.529 -6.069 0.01 0.0 1.0 38.6817305917 0.0 0.0
13 -46.529 -48.552 -6.069 0.01 0.0 1.0 38.6817305917 0.0 0.0
13 -48.552 -48.552 -4.046 0.01 0.0 1.0 38.6817305917 0.0 0.0
13 -46.529 -46.529 -4.046 0.01 0.0 1.0 38.6817305917 0.0 0.0
13 -48.552 -46.529 -2.023 0.01 0.0 1.0 38.6817305917 0.0 0.0
13 -46.529 -48.552 -2.023 0.01 0.0 1.0 38.6817305917 0.0 0.0
13 -48.552 -48.552 0.0 0.01 0.0 1.0 38.6817305917 0.0 0.0
13 -46.529 -46.529 0.0 0.01 0.0 1.0 38.6817305917 0.0 0.0
13 -48.552 -46.529 2.023 0.01 0.0 1.0 38.6817305917 0.0 0.0
13 -46.529 -48.552 2.023 0.01 0.0 1.0 38.6817305917 0.0 0.0
13 -48.552 -48.552 4.046 0.01 0.0 1.0 38.6817305917 0.0 0.0
13 -46.529 -46.529 4.046 0.01 0.0 1.0 38.6817305917 0.0 0.0
13 -48.552 -46.529 6.069 0.01 0.0 1.0 38.6817305917 0.0 0.0
13 -46.529 -48.552 6.069 0.01 0.0 1.0 38.6817305917 0.0 0.0
13 -48.552 -48.552 8.092 0.01 0.0 1.0 38.6817305917 0.0 0.0
13 -46.529 -46.529 8.092 0.01 0.0 1.0 38.6817305917 0.0 0.0
13 -48.552 -46.529 10.115 0.01 0.0 1.0 38.6817305917 0.0 0.0
13 -46.529 -48.552 10.115 0.01 0.0 1.0 38.6817305917 0.0 0.0
13 -48.552 -48.552 12.138 0.01 0.0 1.0 38.6817305917 0.0 0.0
13 -46.529 -46.529 12.138 0.01 0.0 1.0 38.6817305917 0.0 0.0
13 -48.552 -46.529 14.161 0.01 0.0 1.0 38.6817305917 0.0 0.0
13 -46.529 -48.552 14.161 0.01 0.0 1.0 38.6817305917 0.0 0.0
13 -48.552 -48.552 16.184 0.01 0.0 1.0 38.6817305917 0.0 0.0
13 -46.529 -46.529 16.184 0.01 0.0 1.0 38.6817305917 0.0 0.0
13 -48.552 -46.529 18.207 0.01 0.0 1.0 38.6817305917 0.0 0.0
13 -46.529 -48.552 18.207 0.01 0.0 1.0 38.6817305917 0.0 0.0
13 -48.552 -48.552 20.23 0.01 0.0 1.0 38.6817305917 0.0 0.0
13 -46.529 -46.529 20.23 0.01 0.0 1.0 38.6817305917 0.0 0.0
13 -48.552 -46.529 22.253 0.01 0.0 1.0 38.6817305917 0.0 0.0
13 -46.529 -48.552 22.253 0.01 0.0 1.0 38.6817305917 0.0 0.0
13 -48.552 -48.552 24.276 0.01 0.0 1.0 38.6817305917 0.0 0.0
13 -46.529 -46.529 24.276 0.01 0.0 1.0 38.6817305917 0.0 0.0
13 -48.552 -46.529 26.299 0.01 0.0 1.0 38.6817305917 0.0 0.0
13 -46.529 -48.552 26.299 0.01 0.0 1.0 38.6817305917 0.0 0.0
13 -48.552 -48.552 28.322 0.01 0.0 1.0 38.6817305917 0.0 0.0
13 -46.529 -46.529 28.322 0.01 0.0 1.0 38.6817305917 0.0 0.0
13 -48.552 -46.529 30.345 0.01 0.0 1.0 38.6817305917 0.0 0.0
13 -46.529 -48.552 30.345 0.01 0.0 1.0 38.6817305917 0.0 0.0
13 -48.552 -48.552 32.368 0.01 0.0 1.0 38.6817305917 0.0 0.0
13 -46.529 -46.529 32.368 0.01 0.0 1.0 38.6817305917 0.0 0.0
13 -48.552 -46.529 34.391 0.01 0.0 1.0 38.6817305917 0.0 0.0
13 -46.529 -48.552 34.391 0.01 0.0 1.0 38.6817305917 0.0 0.0
13 -48.552 -48.552 36.414 0.01 0.0 1.0 38.6817305917 0.0 0.0
13 -46.529 -46.529 36.414 0.01 0.0 1.0 38.6817305917 0.0 0.0
13 -48.552 -46.529 38.437 0.01 0.0 1.0 38.6817305917 0.0 0.0
13 -46.529 -48.552 38.437 0.01 0.0 1.0 38.6817305917 0.0 0.0
13 -48.552 -48.552 40.46 0.01 0.0 1.0 38.6817305917 0.0 0.0
13 -46.529 -46.529 40.46 0.01 0.0 1.0 38.6817305917 0.0 0.0
13 -48.552 -46.529 42.483 0.01 0.0 1.0 38.6817305917 0.0 0.0
13 -46.529 -48.552 42.483 0.01 0.0 1.0 38.6817305917 0.0 0.0
13 -48.552 -48.552 44.506 0.01 0.0 1.0 38.6817305917 0.0 0.0
13 -46.529 -46.529 44.506 0.01 0.0 1.0 38.6817305917 0.0 0.0
13 -48.552 -46.529 46.529 0.01 0.0 1.0 38.6817305917 0.0 0.0
13 -46.529 -48.552 46.529 0.01 0.0 1.0 38.6817305917 0.0 0.0
13 -48.552 -48.552 48.552 0.01 0.0 1.0 38.6817305917 0.0 0.0
13 -46.529 -46.529 48.552 0.01 0.0 1.0 38.6817305917 0.0 0.0
13 -48.552 -46.529 50.575 0.01 0.0 1.0 38.6817305917 0.0 0.0
13 -46.529 -48.552 50.575 0.01 0.0 1.0 38.6817305917 0.0 0.0
13 -48.552 -44.506 -48.552 0.01 0.0 1.0 38.6817305917 0.0 0.0
13 -46.529 -42.483 -48.552 0.01 0.0 1.0 38.6817305917 0.0 0.0
13 -48.552 -42.483 -46.529 0.01 0.0 1.0 38.6817305917 0.0 0.0
13 -46.529 -44.506 -46.529 0.01 0.0 1.0 38.6817305917 0.0 0.0
13 -48.552 -44.506 -44.506 0.01 0.0 1.0 38.6817305917 0.0 0.0
13 -46.529 -42.483 -44.506 0.01 0.0 1.0 38.6817305917 0.0 0.0
13 -48.552 -42.483 -42.483 0.01 0.0 1.0 38.6817305917 0.0 0.0
13 -46.529 -44.506 -42.483 0.01 0.0 1.0 38.6817305917 0.0 0.0
13 -48.552 -44.506 -40.46 0.01 0.0 1.0 38.6817305917 0.0 0.0
13 -46.529 -42.483 -40.46 0.01 0.0 1.0 38.6817305917 0.0 0.0
13 -48.552 -42.483 -38.437 0.01 0.0 1.0 38.6817305917 0.0 0.0
13 -46.529 -44.506 -38.437 0.01 0.0 1.0 38.6817305917 0.0 0.0
13 -48.552 -44.506 -36.414 0.01 0.0 1.0 38.6817305917 0.0 0.0
13 -46.529 -42.483 -36.414 0.01 0.0 1.0 38.6817305917 0.0 0.0
13 -48.552 -42.483 -34.391 0.01 0.0 1.0 38.6817305917 0.0 0.0
13 -46.529 -44.506 -34.391 0.01 0.0 1.0 38.6817305917 0.0 0.0
13 -48.552 -44.506 -32.368 0.01 0.0 1.0 38.6817305917 0.0 0.0
13 -46.529 -42.483 -32.368 0.01 0.0 1.0 38.6817305917 0.0 0.0
13 -48.552 -42.483 -30.345 0.01 0.0 1.0 38.6817305917 0.0 0.0
13 -46.529 -44.506 -30.345 0.01 0.0 1.0 38.6817305917 0.0 0.0
13 -48.552 -44.506 -28.322 0.01 0.0 1.0 38.6817305917 0.0 0.0
13 -46.529 -42.483 -28.322 0.01 0.0 1.0 38.6817305917 0.0 0.0
13 -48.552 -42.483 -26.299 0.01 0.0 1.0 38.6817305917 0.0 0.0
13 -46.529 -44.506 -26.299 0.01 0.0 1.0 38.6817305917 0.0 0.0
13 -48.552 -44.506 -24.276 0.01 0.0 1.0 38.6817305917 0.0 0.0
13 -46.529 -42.483 -24.276 0.01 0.0 1.0 38.6817305917 0.0 0.0
13 -48.552 -42.483 -22.253 0.01 0.0 1.0 38.6817305917 0.0 0.0
13 -46.529 -44.506 -22.253 0.01 0.0 1.0 38.6817305917 0.0 0.0
13 -48.552 -44.506 -20.23 0.01 0.0 1.0 38.6817305917 0.0 0.0
13 -46.529 -42.483 -20.23 0.01 0.0 1.0 38.6817305917 0.0 0.0
13 -48.552 -42.483 -18.207 0.01 0.0 1.0 38.6817305917 0.0 0.0
13 -46.529 -44.506 -18.207 0.01 0.0 1.0 38.6817305917 0.0 0.0
13 -48.552 -44.506 -16.184 0.01 0.0 1.0 38.6817305917 0.0 0.0
13 -46.529 -42.483 -16.184 0.01 0.0 1.0 38.6817305917 0.0 0.0
13 -48.552 -42.483 -14.161 0.01 0.0 1.0 38.6817305917 0.0 0.0
13 -46.529 -44.506 -14.161 0.01 0.0 1.0 38.6817305917 0.0 0.0
13 -48.552 -44.506 -12.138 0.01 0.0 1.0 38.6817305917 0.0 0.0
13 -46.529 -42.483 -12.138 0.01 0.0 1.0 38.6817305917 0.0 0.0
13 -48.552 -42.483 -10.115 0.01 0.0 1.0 38.6817305917 0.0 0.0
13 -46.529 -44.506 -10.115 0.01 0.0 1.0 38.6817305917 0.0 0.0
13 -48.552 -44.506 -8.092 0.01 0.0 1.0 38.6817305917 0.0 0.0
13 -46.529 -42.483 -8.092 0.01 0.0 1.0 38.6817305917 0.0 0.0
13 -48.552 -42.483 -6.069 0.01 0.0 1.0 38.6817305917 0.0 0.0
13 -46.529 -44.506 -6.069 0.01 0.0 1.0 38.6817305917 0.0 0.0
13 -48.552 -44.506 -4.046 0.01 0.0 1.0 38.6817305917 0.0 0.0
13 -46.529 -42.483 -4.046 0.01 0.0 1.0 38.6817305917 0.0 0.0
13 -48.552 -42.483 -2.023 0.01 0.0 1.0 38.6817305917 0.0 0.0
13 -46.529 -44.506 -2.023 0.01 0.0 1.0 38.6817305917 0.0 0.0
13 -48.552 -44.506 0.0 0.01 0.0 1.0 38.6817305917 0.0 0.0
13 -46.529 -42.483 0.0 0.01 0.0 1.0 38.6817305917 0.0 0.0
13 -48.552 -42.483 2.023 0.01 0.0 1.0 38.6817305917 0.0 0.0
13 -46.529 -44.506 2.023 0.01 0.0 1.0 38.6817305917 0.0 0.0
13 -48.552 -44.506 4.046 0.01 0.0 1.0 38.6817305917 0.0 0.0
13 -46.529 -42.483 4.046 0.01 0.0 1.0 38.6817305917 0.0 0.0
13 -48.552 -42.483 6.069 0.01 0.0 1.0 38.6817305917 0.0 0.0
13 -46.529 -44.506 6.069 0.01 0.0 1.0 38.6817305917 0.0 0.0
13 -48.552 -44.506 8.092 0.01 0.0 1.0 38.6817305917 0.0 0.0
13 -46.529 -42.483 8.092 0.01 0.0 1.0 38.6817305917 0.0 0.0
13 -48.552 -42.483 10.115 0.01 0.0 1.0 38.6817305917 0.0 0.0
13 -46.529 -44.506 10.115 0.01 0.0 1.0 38.6817305917 0.0 0.0
13 -48.552 -44.506 12.138 0.01 0.0 1.0 38.6817305917 0.0 0.0
13 -46.529 -42.483 12.138 0.01 0.0 1.0 38.6817305917 0.0 0.0
13 -48.552 -42.483 14.161 0.01 0.0 1.0 38.6817305917 0.0 0.0
13 -46.529 -44.506 14.161 0.01 0.0 1.0 38.6817305917 0.0 0.0
13 -48.552 -44.506 16.184 0.01 0.0 1.0 38.6817305917 0.0 0.0
13 -46.529 -42.483 16.184 0.01 0.0 1.0 38.6817305917 0.0 0.0
13 -48.552 -42.483 18.207 0.01 0.0 1.0 38.6817305917 0.0 0.0
13 -46.529 -44.506 18.207 0.01 0.0 1.0 38.6817305917 0.0 0.0
13 -48.552 -44.506 20.23 0.01 0.0 1.0 38.6817305917 0.0 0.0
13 -46.529 -42.483 20.23 0.01 0.0 1.0 38.6817305917 0.0 0.0
13 -48.552 -42.483 22.253 0.01 0.0 1.0 38.6817305917 0.0 0.0
13 -46.529 -44.506 22.253 0.01 0.0 1.0 38.6817305917 0.0 0.0
13 -48.552 -44.506 24.276 0.01 0.0 1.0 38.6817305917 0.0 0.0
13 -46.529 -42.483 24.276 0.01 0.0 1.0 38.6817305917 0.0 0.0
13 -48.552 -42.483 26.299 0.01 0.0 1.0 38.6817305917 0.0 0.0
13 -46.529 -44.506 26.299 0.01 0.0 1.0 38.6817305917 0.0 0.0
13 -48.552 -44.506 28.322 0.01 0.0 1.0 38.6817305917 0.0 0.0
13 -46.529 -42.483 28.322 0.01 0.0 1.0 38.6817305917 0.0 0.0
13 -48.552 -42.483 30.345 0.01 0.0 1.0 38.6817305917 0.0 0.0
13 -46.529 -44.506 30.345 0.01 0.0 1.0 38.6817305917 0.0 0.0
13 -48.552 -44.506 32.368 0.01 0.0 1.0 38.6817305917 0.0 0.0
13 -46.529 -42.483 32.368 0.01 0.0 1.0 38.6817305917 0.0 0.0
13 -48.552 -42.483 34.391 0.01 0.0 1.0 38.6817305917 0.0 0.0
13 -46.529 -44.506 34.391 0.01 0.0 1.0 38.6817305917 0.0 0.0
13 -48.552 -44.506 36.414 0.01 0.0 1.0 38.6817305917 0.0 0.0
13 -46.529 -42.483 36.414 0.01 0.0 1.0 38.6817305917 0.0 0.0
13 -48.552 -42.483 38.437 0.01 0.0 1.0 38.6817305917 0.0 0.0
13 -46.529 -44.506 38.437 0.01 0.0 1.0 38.6817305917 0.0 0.0
13 -48.552 -44.506 40.46 0.01 0.0 1.0 38.6817305917 0.0 0.0
13 -46.529 -42.483 40.46 0.01 0.0 1.0 38.6817305917 0.0 0.0
13 -48.552 -42.483 42.483 0.01 0.0 1.0 38.6817305917 0.0 0.0
13 -46.529 -44.506 42.483 0.01 0.0 1.0 38.6817305917 0.0 0.0
13 -48.552 -44.506 44.506 0.01 0.0 1.0 38.6817305917 0.0 0.0
13 -46.529 -42.483 44.506 0.01 0.0 1.0 38.6817305917 0.0 0.0
13 -48.552 -42.483 46.529 0.01 0.0 1.0 38.6817305917 0.0 0.0
13 -46.529 -44.506 46.529 0.01 0.0 1.0 38.6817305917 0.0 0.0
13 -48.552 -44.506 48.552 0.01 0.0 1.0 38.6817305917 0.0 0.0
13 -46.529 -42.483 48.552 0.01 0.0 1.0 38.6817305917 0.0 0.0
13 -48.552 -42.483 50.575 0.01 0.0 1.0 38.6817305917 0.0 0.0
13 -46.529 -44.506 50.575 0.01 0.0 1.0 38.6817305917 0.0 0.0
13 -48.552 -40.46 -48.552 0.01 0.0 1.0 38.6817305917 0.0 0.0
13 -46.529 -38.437 -48.552 0.01 0.0 1.0 38.6817305917 0.0 0.0
13 -48.552 -38.437 -46.529 0.01 0.0 1.0 38.6817305917 0.0 0.0
13 -46.529 -40.46 -46.529 0.01 0.0 1.0 38.6817305917 0.0 0.0
13 -48.552 -40.46 -44.506 0.01 0.0 1.0 38.6817305917 0.0 0.0
13 -46.529 -38.437 -44.506 0.01 0.0 1.0 38.6817305917 0.0 0.0
13 -48.552 -38.437 -42.483 0.01 0.0 1.0 38.6817305917 0.0 0.0
13 -46.529 -40.46 -42.483 0.01 0.0 1.0 38.6817305917 0.0 0.0
13 -48.552 -40.46 -40.46 0.01 0.0 1.0 38.6817305917 0.0 0.0
13 -46.529 -38.437 -40.46 0.01 0.0 1.0 38.6817305917 0.0 0.0
13 -48.552 -38.437 -38.437 0.01 0.0 1.0 38.6817305917 0.0 0.0
13 -46.529 -40.46 -38.437 0.01 0.0 1.0 38.6817305917 0.0 0.0
13 -48.552 -40.46 -36.414 0.01 0.0 1.0 38.6817305917 0.0 0.0
13 -46.529 -38.437 -36.414 0.01 0.0 1.0 38.6817305917 0.0 0.0
13 -48.552 -38.437 -34.391 0.01 0.0 1.0 38.6817305917 0.0 0.0
13 -46.529 -40.46 -34.391 0.01 0.0 1.0 38.6817305917 0.0 0.0
13 -48.552 -40.46 -32.368 0.01 0.0 1.0 38.6817305917 0.0 0.0
13 -46.529 -38.437 -32.368 0.01 0.0 1.0 38.6817305917 0.0 0.0
13 -48.552 -38.437 -30.345 0.01 0.0 1.0 38.6817305917 0.0 0.0
13 -46.529 -40.46 -30.345 0.01 0.0 1.0 38.6817305917 0.0 0.0
13 -48.552 -40.46 -28.322 0.01 0.0 1.0 38.6817305917 0.0 0.0
13 -46.529 -38.437 -28.322 0.01 0.0 1.0 38.6817305917 0.0 0.0
13 -48.552 -38.437 -26.299 0.01 0.0 1.0 38.6817305917 0.0 0.0
13 -46.529 -40.46 -26.299 0.01 0.0 1.0 38.6817305917 0.0 0.0
13 -48.552 -40.46 -24.276 0.01 0.0 1.0 38.6817305917 0.0 0.0
13 -46.529 -38.437 -24.276 0.01 0.0 1.0 38.6817305917 0.0 0.0
13 -48.552 -38.437 -22.253 0.01 0.0 1.0 38.6817305917 0.0 0.0
13 -46.529 -40.46 -22.253 0.01 0.0 1.0 38.6817305917 0.0 0.0
13 -48.552 -40.46 -20.23 0.01 0.0 1.0 38.6817305917 0.0 0.0
13 -46.529 -38.437 -20.23 0.01 0.0 1.0 38.6817305917 0.0 0.0
13 -48.552 -38.437 -18.207 0.01 0.0 1.0 38.6817305917 0.0 0.0
13 -46.529 -40.46 -18.207 0.01 0.0 1.0 38.6817305917 0.0 0.0
13 -48.552 -40.46 -16.184 0.01 0.0 1.0 38.6817305917 0.0 0.0
13 -46.529 -38.437 -16.184 0.01 0.0 1.0 38.6817305917 0.0 0.0
13 -48.552 -38.437 -14.161 0.01 0.0 1.0 38.6817305917 0.0 0.0
13 -46.529 -40.46 -14.161 0.01 0.0 1.0 38.6817305917 0.0 0.0
13 -48.552 -40.46 -12.138 0.01 0.0 1.0 38.6817305917 0.0 0.0
13 -46.529 -38.437 -12.138 0.01 0.0 1.0 38.6817305917 0.0 0.0
13 -48.552 -38.437 -10.115 0.01 0.0 1.0 38.6817305917 0.0 0.0
13 -46.529 -40.46 -10.115 0.01 0.0 1.0 38.6817305917 0.0 0.0
13 -48.552 -40.46 -8.092 0.01 0.0 1.0 38.6817305917 0.0 0.0
13 -46.529 -38.437 -8.092 0.01 0.0 1.0 38.6817305917 0.0 0.0
13 -48.552 -38.437 -6.069 0.01 0.0 1.0 38.6817305917 0.0 0.0
13 -46.529 -40.46 -6.069 0.01 0.0 1.0 38.6817305917 0.0 0.0
13 -48.552 -40.46 -4.046 0.01 0.0 1.0 38.6817305917 0.0 0.0
13 -46.529 -38.437 -4.046 0.01 0.0 1.0 38.6817305917 0.0 0.0
13 -48.552 -38.437 -2.023 0.01 0.0 1.0 38.6817305917 0.0 0.0
13 -46.529 -40.46 -2.023 0.01 0.0 1.0 38.6817305917 0.0 0.0
13 -48.552 -40.46 0.0 0.01 0.0 1.0 38.6817305917 0.0 0.0
13 -46.529 -38.437 0.0 0.01 0.0 1.0 38.6817305917 0.0 0.0
13 -48.552 -38.437 2.023 0.01 0.0 1.0 38.6817305917 0.0 0.0
13 -46.529 -40.46 2.023 0.01 0.0 1.0 38.6817305917 0.0 0.0
13 -48.552 -40.46 4.046 0.01 0.0 1.0 38.6817305917 0.0 0.0
13 -46.529 -38.437 4.046 0.01 0.0 1.0 38.6817305917 0.0 0.0
13 -48.552 -38.437 6.069 0.01 0.0 1.0 38.6817305917 0.0 0.0
13 -46.529 -40.46 6.069 0.01 0.0 1.0 38.6817305917 0.0 0.0
13 -48.552 -40.46 8.092 0.01 0.0 1.0 38.6817305917 0.0 0.0
13 -46.529 -38.437 8.092 0.01 0.0 1.0 38.6817305917 0.0 0.0
13 -48.552 -38.437 10.115 0.01 0.0 1.0 38.6817305917 0.0 0.0
13 -46.529 -40.46 10.115 0.01 0.0 1.0 38.6817305917 0.0 0.0
13 -48.552 -40.46 12.138 0.01 0.0 1.0 38.6817305917 0.0 0.0
13 -46.529 -38.437 12.138 0.01 0.0 1.0 38.6817305917 0.0 0.0
13 -48.552 -38.437 14.161 0.01 0.0 1.0 38.6817305917 0.0 0.0
13 -46.529 -40.46 14.161 0.01 0.0 1.0 38.6817305917 0.0 0.0
13 -48.552 -40.46 16.184 0.01 0.0 1.0 38.6817305917 0.0 0.0
13 -46.529 -38.437 16.184 0.01 0.0 1.0 38.6817305917 0.0 0.0
13 -48.552 -38.437 18.207 0.01 0.0 1.0 38.6817305917 0.0 0.0
13 -46.529 -40.46 18.207 0.01 0.0 1.0 38.6817305917 0.0 0.0
13 -48.552 -40.46 20.23 0.01 0.0 1.0 38.6817305917 0.0 0.0
13 -46.529 -38.437 20.23 0.01 0.0 1.0 38.6817305917 0.0 0.0
13 -48.552 -38.437 22.253 0.01 0.0 1.0 38.6817305917 0.0 0.0
13 -46.529 -40.46 22.253 0.01 0.0 1.0 38.6817305917 0.0 0.0
13 -48.552 -40.46 24.276 0.01 0.0 1.0 38.6817305917 0.0 0.0
13 -46.529 -38.437 24.276 0.01 0.0 1.0 38.6817305917 0.0 0.0
13 -48.552 -38.437 26.299 0.01 0.0 1.0 38.6817305917 0.0 0.0
13 -46.529 -40.46 26.299 0.01 0.0 1.0 38.6817305917 0.0 0.0
13 -48.552 -40.46 28.322 0.01 0.0 1.0 38.6817305917 0.0 0.0
13 -46.529 -38.437 28.322 0.01 0.0 1.0 38.6817305917 0.0 0.0
13 -48.552 -38.437 30.345 0.01 0.0 1.0 38.6817305917 0.0 0.0
13 -46.529 -40.46 30.345 0.01 0.0 1.0 38.6817305917 0.0 0.0
13 -48.552 -40.46 32.368 0.01 0.0 1.0 38.6817305917 0.0 0.0
13 -46.529 -38.437 32.368 0.01 0.0 1.0 38.6817305917 0.0 0.0
13 -48.552 -38.437 34.391 0.01 0.0 1.0 38.6817305917 0.0 0.0
13 -46.529 -40.46 34.391 0.01 0.0 1.0 38.6817305917 0.0 0.0
13 -48.552 -40.46 36.414 0.01 0.0 1.0 38.6817305917 0.0 0.0
13 -46.529 -38.437 36.414 0.01 0.0 1.0 38.6817305917 0.0 0.0
13 -48.552 -38.437 38.437 0.01 0.0 1.0 38.6817305917 0.0 0.0
13 -46.529 -40.46 38.437 0.01 0.0 1.0 38.6817305917 0.0 0.0
13 -48.552 -40.46 40.46 0.01 0.0 1.0 38.6817305917 0.0 0.0
13 -46.529 -38.437 40.46 0.01 0.0 1.0 38.6817305917 0.0 0.0
13 -48.552 -38.437 42.483 0.01 0.0 1.0 38.6817305917 0.0 0.0
13 -46.529 -40.46 42.483 0.01 0.0 1.0 38.6817305917 0.0 0.0
13 -48.552 -40.46 44.506 0.01 0.0 1.0 38.6817305917 0.0 0.0
13 -46.529 -38.437 44.506 0.01 0.0 1.0 38.6817305917 0.0 0.0
13 -48.552 -38.437 46.529 0.01 0.0 1.0 38.6817305917 0.0 0.0
13 -46.529 -40.46 46.529 0.01 0.0 1.0 38.6817305917 0.0 0.0
13 -48.552 -40.46 48.552 0.01 0.0 1.0 38.6817305917 0.0 0.0
13 -46.529 -38.437 48.552 0.01 0.0 1.0 38.6817305917 0.0 0.0
13 -48.552 -38.437 50.575 0.01 0.0 1.0 38.6817305917 0.0 0.0
13 -46.529 -40.46 50.575 0.01 0.0 1.0 38.6817305917 0.0 0.0
13 -48.552 -36.414 -48.552 0.01 0.0 1.0 38.6817305917 0.0 0.0
13 -46.529 -34.391 -48.552 0.01 0.0 1.0 38.6817305917 0.0 0.0
13 -48.552 -34.391 -46.529 0.01 0.0 1.0 38.6817305917 0.0 0.0
13 -46.529 -36.414 -46.529 0.01 0.0 1.0 38.6817305917 0.0 0.0
13 -48.552 -36.414 -44.506 0.01 0.0 1.0 38.6817305917 0.0 0.0
13 -46.529 -34.391 -44.506 0.01 0.0 1.0 38.6817305917 0.0 0.0
13 -48.552 -34.391 -42.483 0.01 0.0 1.0 38.6817305917 0.0 0.0
13 -46.529 -36.414 -42.483 0.01 0.0 1.0 38.6817305917 0.0 0.0
13 -48.552 -36.414 -40.46 0.01 0.0 1.0 38.6817305917 0.0 0.0
13 -46.529 -34.391 -40.46 0.01 0.0 1.0 38.6817305917 0.0 0.0
13 -48.552 -34.391 -38.437 0.01 0.0 1.0 38.6817305917 0.0 0.0
13 -46.529 -36.414 -38.437 0.01 0.0 1.0 38.6817305917 0.0 0.0
13 -48.552 -36.414 -36.414 0.01 0.0 1.0 38.6817305917 0.0 0.0
13 -46.529 -34.391 -36.414 0.01 0.0 1.0 38.6817305917 0.0 0.0
13 -48.552 -34.391 -34.391 0.01 0.0 1.0 38.6817305917 0.0 0.0
13 -46.529 -36.414 -34.391 0.01 0.0 1.0 38.6817305917 0.0 0.0
13 -48.552 -36.414 -32.368 0.01 0.0 1.0 38.6817305917 0.0 0.0
13 -46.529 -34.391 -32.368 0.01 0.0 1.0 38.6817305917 0.0 0.0
13 -48.552 -34.391 -30.345 0.01 0.0 1.0 38.6817305917 0.0 0.0
13 -46.529 -36.414 -30.345 0.01 0.0 1.0 38.6817305917 0.0 0.0
13 -48.552 -36.414 -28.322 0.01 0.0 1.0 38.6817305917 0.0 0.0
13 -46.529 -34.391 -28.322 0.01 0.0 1.0 38.6817305917 0.0 0.0
13 -48.552 -34.391 -26.299 0.01 0.0 1.0 38.6817305917 0.0 0.0
13 -46.529 -36.414 -26.299 0.01 0.0 1.0 38.6817305917 0.0 0.0
13 -48.552 -36.414 -24.276 0.01 0.0 1.0 38.6817305917 0.0 0.0
13 -46.529 -34.391 -24.276 0.01 0.0 1.0 38.6817305917 0.0 0.0
13 -48.552 -34.391 -22.253 0.01 0.0 1.0 38.6817305917 0.0 0.0
13 -46.529 -36.414 -22.253 0.01 0.0 1.0 38.6817305917 0.0 0.0
13 -48.552 -36.414 -20.23 0.01 0.0 1.0 38.6817305917 0.0 0.0
13 -46.529 -34.391 -20.23 0.01 0.0 1.0 38.6817305917 0.0 0.0
13 -48.552 -34.391 -18.207 0.01 0.0 1.0 38.6817305917 0.0 0.0
13 -46.529 -36.414 -18.207 0.01 0.0 1.0 38.6817305917 0.0 0.0
13 -48.552 -36.414 -16.184 0.01 0.0 1.0 38.6817305917 0.0 0.0
13 -46.529 -34.391 -16.184 0.01 0.0 1.0 38.6817305917 0.0 0.0
13 -48.552 -34.391 -14.161 0.01 0.0 1.0 38.6817305917 0.0 0.0
13 -46.529 -36.414 -14.161 0.01 0.0 1.0 38.6817305917 0.0 0.0
13 -48.552 -36.414 -12.138 0.01 0.0 1.0 38.6817305917 0.0 0.0
13 -46.529 -34.391 -12.138 0.01 0.0 1.0 38.6817305917 0.0 0.0
13 -48.552 -34.391 -10.115 0.01 0.0 1.0 38.6817305917 0.0 0.0
13 -46.529 -36.414 -10.115 0.01 0.0 1.0 38.6817305917 0.0 0.0
13 -48.552 -36.414 -8.092 0.01 0.0 1.0 38.6817305917 0.0 0.0
13 -46.529 -34.391 -8.092 0.01 0.0 1.0 38.6817305917 0.0 0.0
13 -48.552 -34.391 -6.069 0.01 0.0 1.0 38.6817305917 0.0 0.0
13 -46.529 -36.414 -6.069 0.01 0.0 1.0 38.6817305917 0.0 0.0
13 -48.552 -36.414 -4.046 0.01 0.0 1.0 38.6817305917 0.0 0.0
13 -46.529 -34.391 -4.046 0.01 0.0 1.0 38.6817305917 0.0 0.0
13 -48.552 -34.391 -2.023 0.01 0.0 1.0 38.6817305917 0.0 0.0
13 -46.529 -36.414 -2.023 0.01 0.0 1.0 38.6817305917 0.0 0.0
13 -48.552 -36.414 0.0 0.01 0.0 1.0 38.6817305917 0.0 0.0
13 -46.529 -34.391 0.0 0.01 0.0 1.0 38.6817305917 0.0 0.0
13 -48.552 -34.391 2.023 0.01 0.0 1.0 38.6817305917 0.0 0.0
13 -46.529 -36.414 2.023 0.01 0.0 1.0 38.6817305917 0.0 0.0
13 -48.552 -36.414 4.046 0.01 0.0 1.0 38.6817305917 0.0 0.0
13 -46.529 -34.391 4.046 0.01 0.0 1.0 38.6817305917 0.0 0.0
13 -48.552 -34.391 6.069 0.01 0.0 1.0 38.6817305917 0.0 0.0
13 -46.529 -36.414 6.069 0.01 0.0 1.0 38.6817305917 0.0 0.0
13 -48.552 -36.414 8.092 0.01 0.0 1.0 38.6817305917 0.0 0.0
13 -46.529 -34.391 8.092 0.01 0.0 1.0 38.6817305917 0.0 0.0
13 -48.552 -34.391 10.115 0.01 0.0 1.0 38.6817305917 0.0 0.0
13 -46.529 -36.414 10.115 0.01 0.0 1.0 38.6817305917 0.0 0.0
13 -48.552 -36.414 12.138 0.01 0.0 1.0 38.6817305917 0.0 0.0
13 -46.529 -34.391 12.138 0.01 0.0 1.0 38.6817305917 0.0 0.0
13 -48.552 -34.391 14.161 0.01 0.0 1.0 38.6817305917 0.0 0.0
13 -46.529 -36.414 14.161 0.01 0.0 1.0 38.6817305917 0.0 0.0
13 -48.552 -36.414 16.184 0.01 0.0 1.0 38.6817305917 0.0 0.0
13 -46.529 -34.391 16.184 0.01 0.0 1.0 38.6817305917 0.0 0.0
13 -48.552 -34.391 18.207 0.01 0.0 1.0 38.6817305917 0.0 0.0
13 -46.529 -36.414 18.207 0.01 0.0 1.0 38.6817305917 0.0 0.0
13 -48.552 -36.414 20.23 0.01 0.0 1.0 38.6817305917 0.0 0.0
13 -46.529 -34.391 20.23 0.01 0.0 1.0 38.6817305917 0.0 0.0
13 -48.552 -34.391 22.253 0.01 0.0 1.0 38.6817305917 0.0 0.0
13 -46.529 -36.414 22.253 0.01 0.0 1.0 38.6817305917 0.0 0.0
13 -48.552 -36.414 24.276 0.01 0.0 1.0 38.6817305917 0.0 0.0
13 -46.529 -34.391 24.276 0.01 0.0 1.0 38.6817305917 0.0 0.0
13 -48.552 -34.391 26.299 0.01 0.0 1.0 38.6817305917 0.0 0.0
13 -46.529 -36.414 26.299 0.01 0.0 1.0 38.6817305917 0.0 0.0
13 -48.552 -36.414 28.322 0.01 0.0 1.0 38.6817305917 0.0 0.0
13 -46.529 -34.391 28.322 0.01 0.0 1.0 38.6817305917 0.0 0.0
13 -48.552 -34.391 30.345 0.01 0.0 1.0 38.6817305917 0.0 0.0
13 -46.529 -36.414 30.345 0.01 0.0 1.0 38.6817305917 0.0 0.0
13 -48.552 -36.414 32.368 0.01 0.0 1.0 38.6817305917 0.0 0.0
13 -46.529 -34.391 32.368 0.01 0.0 1.0 38.6817305917 0.0 0.0
13 -48.552 -34.391 34.391 0.01 0.0 1.0 38.6817305917 0.0 0.0
13 -46.529 -36.414 34.391 0.01 0.0 1.0 38.6817305917 0.0 0.0
13 -48.552 -36.414 36.414 0.01 0.0 1.0 38.6817305917 0.0 0.0
13 -46.529 -34.391 36.414 0.01 0.0 1.0 38.6817305917 0.0 0.0
13 -48.552 -34.391 38.437 0.01 0.0 1.0 38.6817305917 0.0 0.0
13 -46.529 -36.414 38.437 0.01 0.0 1.0 38.6817305917 0.0 0.0
13 -48.552 -36.414 40.46 0.01 0.0 1.0 38.6817305917 0.0 0.0
13 -46.529 -34.391 40.46 0.01 0.0 1.0 38.6817305917 0.0 0.0
13 -48.552 -34.391 42.483 0.01 0.0 1.0 38.6817305917 0.0 0.0
13 -46.529 -36.414 42.483 0.01 0.0 1.0 38.6817305917 0.0 0.0
13 -48.552 -36.414 44.506 0.01 0.0 1.0 38.6817305917 0.0 0.0
13 -46.529 -34.391 44.506 0.01 0.0 1.0 38.6817305917 0.0 0.0
13 -48.552 -34.391 46.529 0.01 0.0 1.0 38.6817305917 0.0 0.0
13 -46.529 -36.414 46.529 0.01 0.0 1.0 38.6817305917 0.0 0.0
13 -48.552 -36.414 48.552 0.01 0.0 1.0 38.6817305917 0.0 0.0
13 -46.529 -34.391 48.552 0.01 0.0 1.0 38.6817305917 0.0 0.0
13 -48.552 -34.391 50.575 0.01 0.0 1.0 38.6817305917 0.0 0.0
13 -46.529 -36.414 50.575 0.01 0.0 1.0 38.6817305917 0.0 0.0
13 -48.552 -32.368 -48.552 0.01 0.0 1.0 38.6817305917 0.0 0.0
13 -46.529 -30.345 -48.552 0.01 0.0 1.0 38.6817305917 0.0 0.0
13 -48.552 -30.345 -46.529 0.01 0.0 1.0 38.6817305917 0.0 0.0
13 -46.529 -32.368 -46.529 0.01 0.0 1.0 38.6817305917 0.0 0.0
13 -48.552 -32.368 -44.506 0.01 0.0 1.0 38.6817305917 0.0 0.0
13 -46.529 -30.345 -44.506 0.01 0.0 1.0 38.6817305917 0.0 0.0
13 -48.552 -30.345 -42.483 0.01 0.0 1.0 38.6817305917 0.0 0.0
13 -46.529 -32.368 -42.483 0.01 0.0 1.0 38.6817305917 0.0 0.0
13 -48.552 -32.368 -40.46 0.01 0.0 1.0 38.6817305917 0.0 0.0
13 -46.529 -30.345 -40.46 0.01 0.0 1.0 38.6817305917 0.0 0.0
13 -48.552 -30.345 -38.437 0.01 0.0 1.0 38.6817305917 0.0 0.0
13 -46.529 -32.368 -38.437 0.01 0.0 1.0 38.6817305917 0.0 0.0
13 -48.552 -32.368 -36.414 0.01 0.0 1.0 38.6817305917 0.0 0.0
13 -46.529 -30.345 -36.414 0.01 0.0 1.0 38.6817305917 0.0 0.0
13 -48.552 -30.345 -34.391 0.01 0.0 1.0 38.6817305917 0.0 0.0
13 -46.529 -32.368 -34.391 0.01 0.0 1.0 38.6817305917 0.0 0.0
13 -48.552 -32.368 -32.368 0.01 0.0 1.0 38.6817305917 0.0 0.0
13 -46.529 -30.345 -32.368 0.01 0.0 1.0 38.6817305917 0.0 0.0
13 -48.552 -30.345 -30.345 0.01 0.0 1.0 38.6817305917 0.0 0.0
13 -46.529 -32.368 -30.345 0.01 0.0 1.0 38.6817305917 0.0 0.0
13 -48.552 -32.368 -28.322 0.01 0.0 1.0 38.6817305917 0.0 0.0
13 -46.529 -30.345 -28.322 0.01 0.0 1.0 38.6817305917 0.0 0.0
13 -48.552 -30.345 -26.299 0.01 0.0 1.0 38.6817305917 0.0 0.0
13 -46.529 -32.368 -26.299 0.01 0.0 1.0 38.6817305917 0.0 0.0
13 -48.552 -32.368 -24.276 0.01 0.0 1.0 38.6817305917 0.0 0.0
13 -46.529 -30.345 -24.276 0.01 0.0 1.0 38.6817305917 0.0 0.0
13 -48.552 -30.345 -22.253 0.01 0.0 1.0 38.6817305917 0.0 0.0
13 -46.529 -32.368 -22.253 0.01 0.0 1.0 38.6817305917 0.0 0.0
13 -48.552 -32.368 -20.23 0.01 0.0 1.0 38.6817305917 0.0 0.0
13 -46.529 -30.345 -20.23 0.01 0.0 1.0 38.6817305917 0.0 0.0
13 -48.552 -30.345 -18.207 0.01 0.0 1.0 38.6817305917 0.0 0.0
13 -46.529 -32.368 -18.207 0.01 0.0 1.0 38.6817305917 0.0 0.0
13 -48.552 -32.368 -16.184 0.01 0.0 1.0 38.6817305917 0.0 0.0
13 -46.529 -30.345 -16.184 0.01 0.0 1.0 38.6817305917 0.0 0.0
13 -48.552 -30.345 -14.161 0.01 0.0 1.0 38.6817305917 0.0 0.0
13 -46.529 -32.368 -14.161 0.01 0.0 1.0 38.6817305917 0.0 0.0
13 -48.552 -32.368 -12.138 0.01 0.0 1.0 38.6817305917 0.0 0.0
13 -46.529 -30.345 -12.138 0.01 0.0 1.0 38.6817305917 0.0 0.0
13 -48.552 -30.345 -10.115 0.01 0.0 1.0 38.6817305917 0.0 0.0
13 -46.529 -32.368 -10.115 0.01 0.0 1.0 38.6817305917 0.0 0.0
13 -48.552 -32.368 -8.092 0.01 0.0 1.0 38.6817305917 0.0 0.0
13 -46.529 -30.345 -8.092 0.01 0.0 1.0 38.6817305917 0.0 0.0
13 -48.552 -30.345 -6.069 0.01 0.0 1.0 38.6817305917 0.0 0.0
13 -46.529 -32.368 -6.069 0.01 0.0 1.0 38.6817305917 0.0 0.0
13 -48.552 -32.368 -4.046 0.01 0.0 1.0 38.6817305917 0.0 0.0
13 -46.529 -30.345 -4.046 0.01 0.0 1.0 38.6817305917 0.0 0.0
13 -48.552 -30.345 -2.023 0.01 0.0 1.0 38.6817305917 0.0 0.0
13 -46.529 -32.368 -2.023 0.01 0.0 1.0 38.6817305917 0.0 0.0
13 -48.552 -32.368 0.0 0.01 0.0 1.0 38.6817305917 0.0 0.0
13 -46.529 -30.345 0.0 0.01 0.0 1.0 38.6817305917 0.0 0.0
13 -48.552 -30.345 2.023 0.01 0.0 1.0 38.6817305917 0.0 0.0
13 -46.529 -32.368 2.023 0.01 0.0 1.0 38.6817305917 0.0 0.0
13 -48.552 -32.368 4.046 0.01 0.0 1.0 38.6817305917 0.0 0.0
13 -46.529 -30.345 4.046 0.01 0.0 1.0 38.6817305917 0.0 0.0
13 -48.552 -30.345 6.069 0.01 0.0 1.0 38.6817305917 0.0 0.0
13 -46.529 -32.368 6.069 0.01 0.0 1.0 38.6817305917 0.0 0.0
13 -48.552 -32.368 8.092 0.01 0.0 1.0 38.6817305917 0.0 0.0
13 -46.529 -30.345 8.092 0.01 0.0 1.0 38.6817305917 0.0 0.0
13 -48.552 -30.345 10.115 0.01 0.0 1.0 38.6817305917 0.0 0.0
13 -46.529 -32.368 10.115 0.01 0.0 1.0 38.6817305917 0.0 0.0
13 -48.552 -32.368 12.138 0.01 0.0 1.0 38.6817305917 0.0 0.0
13 -46.529 -30.345 12.138 0.01 0.0 1.0 38.6817305917 0.0 0.0
13 -48.552 -30.345 14.161 0.01 0.0 1.0 38.6817305917 0.0 0.0
13 -46.529 -32.368 14.161 0.01 0.0 1.0 38.6817305917 0.0 0.0
13 -48.552 -32.368 16.184 0.01 0.0 1.0 38.6817305917 0.0 0.0
13 -46.529 -30.345 16.184 0.01 0.0 1.0 38.6817305917 0.0 0.0
13 -48.552 -30.345 18.207 0.01 0.0 1.0 38.6817305917 0.0 0.0
13 -46.529 -32.368 18.207 0.01 0.0 1.0 38.6817305917 0.0 0.0
13 -48.552 -32.368 20.23 0.01 0.0 1.0 38.6817305917 0.0 0.0
13 -46.529 -30.345 20.23 0.01 0.0 1.0 38.6817305917 0.0 0.0
13 -48.552 -30.345 22.253 0.01 0.0 1.0 38.6817305917 0.0 0.0
13 -46.529 -32.368 22.253 0.01 0.0 1.0 38.6817305917 0.0 0.0
13 -48.552 -32.368 24.276 0.01 0.0 1.0 38.6817305917 0.0 0.0
13 -46.529 -30.345 24.276 0.01 0.0 1.0 38.6817305917 0.0 0.0
13 -48.552 -30.345 26.299 0.01 0.0 1.0 38.6817305917 0.0 0.0
13 -46.529 -32.368 26.299 0.01 0.0 1.0 38.6817305917 0.0 0.0
13 -48.552 -32.368 28.322 0.01 0.0 1.0 38.6817305917 0.0 0.0
13 -46.529 -30.345 28.322 0.01 0.0 1.0 38.6817305917 0.0 0.0
13 -48.552 -30.345 30.345 0.01 0.0 1.0 38.6817305917 0.0 0.0
13 -46.529 -32.368 30.345 0.01 0.0 1.0 38.6817305917 0.0 0.0
13 -48.552 -32.368 32.368 0.01 0.0 1.0 38.6817305917 0.0 0.0
13 -46.529 -30.345 32.368 0.01 0.0 1.0 38.6817305917 0.0 0.0
13 -48.552 -30.345 34.391 0.01 0.0 1.0 38.6817305917 0.0 0.0
13 -46.529 -32.368 34.391 0.01 0.0 1.0 38.6817305917 0.0 0.0
13 -48.552 -32.368 36.414 0.01 0.0 1.0 38.6817305917 0.0 0.0
13 -46.529 -30.345 36.414 0.01 0.0 1.0 38.6817305917 0.0 0.0
13 -48.552 -30.345 38.437 0.01 0.0 1.0 38.6817305917 0.0 0.0