ITEM: TIMESTEP
0
ITEM: NUMBER OF ATOMS
4000
ITEM: BOX BOUNDS pp pp pp
-16.2 24.3
-16.2 24.3
-16.2 24.3
ITEM: ATOMS type x y z Stdvq Molarfraction chemicalmultp thermalmultp chemicalmultpbcc thermalmultpbcc
13 -16.2 -16.2 -16.2 0.01 1.0 1.0 38.6817305917 0.0 0.0
13 -14.175 -14.175 -16.2 0.01 1.0 1.0 38.6817305917 0.0 0.0
13 -16.2 -14.175 -14.175 0.01 1.0 1.0 38.6817305917 0.0 0.0
13 -14.175 -16.2 -14.175 0.01 1.0 1.0 38.6817305917 0.0 0.0
13 -16.2 -16.2 -12.15 0.01 1.0 1.0 38.6817305917 0.0 0.0
13 -14.175 -14.175 -12.15 0.01 1.0 1.0 38.6817305917 0.0 0.0
13 -16.2 -14.175 -10.125 0.01 1.0 1.0 38.6817305917 0.0 0.0
13 -14.175 -16.2 -10.125 0.01 1.0 1.0 38.6817305917 0.0 0.0
13 -16.2 -16.2 -8.1 0.01 1.0 1.0 38.6817305917 0.0 0.0
13 -14.175 -14.175 -8.1 0.01 1.0 1.0 38.6817305917 0.0 0.0
13 -16.2 -14.175 -6.075 0.01 1.0 1.0 38.6817305917 0.0 0.0
13 -14.175 -16.2 -6.075 0.01 1.0 1.0 38.6817305917 0.0 0.0
13 -16.2 -16.2 -4.05 0.01 1.0 1.0 38.6817305917 0.0 0.0
13 -14.175 -14.175 -4.05 0.01 1.0 1.0 38.6817305917 0.0 0.0
13 -16.2 -14.175 -2.025 0.01 1.0 1.0 38.6817305917 0.0 0.0
13 -14.175 -16.2 -2.025 0.01 1.0 1.0 38.6817305917 0.0 0.0
13 -16.2 -16.2 0.0 0.01 1.0 1.0 38.6817305917 0.0 0.0
13 -14.175 -14.175 0.0 0.01 1.0 1.0 38.6817305917 0.0 0.0
13 -16.2 -14.175 2.025 0.01 1.0 1.0 38.6817305917 0.0 0.0
13 -14.175 -16.2 2.025 0.01 1.0 1.0 38.6817305917 0.0 0.0
13 -16.2 -16.2 4.05 0.01 1.0 1.0 38.6817305917 0.0 0.0
13 -14.175 -14.175 4.05 0.01 1.0 1.0 38.6817305917 0.0 0.0
13 -16.2 -14.175 6.075 0.01 1.0 1.0 38.6817305917 0.0 0.0
13 -14.175 -16.2 6.075 0.01 1.0 1.0 38.6817305917 0.0 0.0
13 -16.2 -16.2 8.1 0.01 1.0 1.0 38.6817305917 0.0 0.0
13 -14.175 -14.175 8.1 0.01 1.0 1.0 38.6817305917 0.0 0.0
13 -16.2 -14.175 10.125 0.01 1.0 1.0 38.6817305917 0.0 0.0
13 -14.175 -16.2 10.125 0.01 1.0 1.0 38.6817305917 0.0 0.0
13 -16.2 -16.2 12.15 0.01 1.0 1.0 38.6817305917 0.0 0.0
13 -14.175 -14.175 12.15 0.01 1.0 1.0 38.6817305917 0.0 0.0
13 -16.2 -14.175 14.175 0.01 1.0 1.0 38.6817305917 0.0 0.0
13 -14.175 -16.2 14.175 0.01 1.0 1.0 38.6817305917 0.0 0.0
13 -16.2 -16.2 16.2 0.01 1.0 1.0 38.6817305917 0.0 0.0
13 -14.175 -14.175 16.2 0.01 1.0 1.0 38.6817305917 0.0 0.0
13 -16.2 -14.175 18.225 0.01 1.0 1.0 38.6817305917 0.0 0.0
13 -14.175 -16.2 18.225 0.01 1.0 1.0 38.6817305917 0.0 0.0
13 -16.2 -16.2 20.25 0.01 1.0 1.0 38.6817305917 0.0 0.0
13 -14.175 -14.175 20.25 0.01 1.0 1.0 38.6817305917 0.0 0.0
13 -16.2 -14.175 22.275 0.01 1.0 1.0 38.6817305917 0.0 0.0
13 -14.175 -16.2 22.275 0.01 1.0 1.0 38.6817305917 0.0 0.0
13 -16.2 -12.15 -16.2 0.01 1.0 1.0 38.6817305917 0.0 0.0
13 -14.175 -10.125 -16.2 0.01 1.0 1.0 38.6817305917 0.0 0.0
13 -16.2 -10.125 -14.175 0.01 1.0 1.0 38.6817305917 0.0 0.0
13 -14.175 -12.15 -14.175 0.01 1.0 1.0 38.6817305917 0.0 0.0
13 -16.2 -12.15 -12.15 0.01 1.0 1.0 38.6817305917 0.0 0.0
13 -14.175 -10.125 -12.15 0.01 1.0 1.0 38.6817305917 0.0 0.0
13 -16.2 -10.125 -10.125 0.01 1.0 1.0 38.6817305917 0.0 0.0
13 -14.175 -12.15 -10.125 0.01 1.0 1.0 38.6817305917 0.0 0.0
13 -16.2 -12.15 -8.1 0.01 1.0 1.0 38.6817305917 0.0 0.0
13 -14.175 -10.125 -8.1 0.01 1.0 1.0 38.6817305917 0.0 0.0
13 -16.2 -10.125 -6.075 0.01 1.0 1.0 38.6817305917 0.0 0.0
13 -14.175 -12.15 -6.075 0.01 1.0 1.0 38.6817305917 0.0 0.0
13 -16.2 -12.15 -4.05 0.01 1.0 1.0 38.6817305917 0.0 0.0
13 -14.175 -10.125 -4.05 0.01 1.0 1.0 38.6817305917 0.0 0.0
13 -16.2 -10.125 -2.025 0.01 1.0 1.0 38.6817305917 0.0 0.0
13 -14.175 -12.15 -2.025 0.01 1.0 1.0 38.6817305917 0.0 0.0
13 -16.2 -12.15 0.0 0.01 1.0 1.0 38.6817305917 0.0 0.0
13 -14.175 -10.125 0.0 0.01 1.0 1.0 38.6817305917 0.0 0.0
13 -16.2 -10.125 2.025 0.01 1.0 1.0 38.6817305917 0.0 0.0
13 -14.175 -12.15 2.025 0.01 1.0 1.0 38.6817305917 0.0 0.0
13 -16.2 -12.15 4.05 0.01 1.0 1.0 38.6817305917 0.0 0.0
13 -14.175 -10.125 4.05 0.01 1.0 1.0 38.6817305917 0.0 0.0
13 -16.2 -10.125 6.075 0.01 1.0 1.0 38.6817305917 0.0 0.0
13 -14.175 -12.15 6.075 0.01 1.0 1.0 38.6817305917 0.0 0.0
13 -16.2 -12.15 8.1 0.01 1.0 1.0 38.6817305917 0.0 0.0
13 -14.175 -10.125 8.1 0.01 1.0 1.0 38.6817305917 0.0 0.0
13 -16.2 -10.125 10.125 0.01 1.0 1.0 38.6817305917 0.0 0.0
13 -14.175 -12.15 10.125 0.01 1.0 1.0 38.6817305917 0.0 0.0
13 -16.2 -12.15 12.15 0.01 1.0 1.0 38.6817305917 0.0 0.0
13 -14.175 -10.125 12.15 0.01 1.0 1.0 38.6817305917 0.0 0.0
13 -16.2 -10.125 14.175 0.01 1.0 1.0 38.6817305917 0.0 0.0
13 -14.175 -12.15 14.175 0.01 1.0 1.0 38.6817305917 0.0 0.0
13 -16.2 -12.15 16.2 0.01 1.0 1.0 38.6817305917 0.0 0.0
13 -14.175 -10.125 16.2 0.01 1.0 1.0 38.6817305917 0.0 0.0
13 -16.2 -10.125 18.225 0.01 1.0 1.0 38.6817305917 0.0 0.0
13 -14.175 -12.15 18.225 0.01 1.0 1.0 38.6817305917 0.0 0.0
13 -16.2 -12.15 20.25 0.01 1.0 1.0 38.6817305917 0.0 0.0
13 -14.175 -10.125 20.25 0.01 1.0 1.0 38.6817305917 0.0 0.0
13 -16.2 -10.125 22.275 0.01 1.0 1.0 38.6817305917 0.0 0.0
13 -14.175 -12.15 22.275 0.01 1.0 1.0 38.6817305917 0.0 0.0
13 -16.2 -8.1 -16.2 0.01 1.0 1.0 38.6817305917 0.0 0.0
13 -14.175 -6.075 -16.2 0.01 1.0 1.0 38.6817305917 0.0 0.0
13 -16.2 -6.075 -14.175 0.01 1.0 1.0 38.6817305917 0.0 0.0
13 -14.175 -8.1 -14.175 0.01 1.0 1.0 38.6817305917 0.0 0.0
13 -16.2 -8.1 -12.15 0.01 1.0 1.0 38.6817305917 0.0 0.0
13 -14.175 -6.075 -12.15 0.01 1.0 1.0 38.6817305917 0.0 0.0
13 -16.2 -6.075 -10.125 0.01 1.0 1.0 38.6817305917 0.0 0.0
13 -14.175 -8.1 -10.125 0.01 1.0 1.0 38.6817305917 0.0 0.0
13 -16.2 -8.1 -8.1 0.01 1.0 1.0 38.6817305917 0.0 0.0
13 -14.175 -6.075 -8.1 0.01 1.0 1.0 38.6817305917 0.0 0.0
13 -16.2 -6.075 -6.075 0.01 1.0 1.0 38.6817305917 0.0 0.0
13 -14.175 -8.1 -6.075 0.01 1.0 1.0 38.6817305917 0.0 0.0
13 -16.2 -8.1 -4.05 0.01 1.0 1.0 38.6817305917 0.0 0.0
13 -14.175 -6.075 -4.05 0.01 1.0 1.0 38.6817305917 0.0 0.0
13 -16.2 -6.075 -2.025 0.01 1.0 1.0 38.6817305917 0.0 0.0
13 -14.175 -8.1 -2.025 0.01 1.0 1.0 38.6817305917 0.0 0.0
13 -16.2 -8.1 0.0 0.01 1.0 1.0 38.6817305917 0.0 0.0
13 -14.175 -6.075 0.0 0.01 1.0 1.0 38.6817305917 0.0 0.0
13 -16.2 -6.075 2.025 0.01 1.0 1.0 38.6817305917 0.0 0.0
13 -14.175 -8.1 2.025 0.01 1.0 1.0 38.6817305917 0.0 0.0
13 -16.2 -8.1 4.05 0.01 1.0 1.0 38.6817305917 0.0 0.0
13 -14.175 -6.075 4.05 0.01 1.0 1.0 38.6817305917 0.0 0.0
13 -16.2 -6.075 6.075 0.01 1.0 1.0 38.6817305917 0.0 0.0
13 -14.175 -8.1 6.075 0.01 1.0 1.0 38.6817305917 0.0 0.0
13 -16.2 -8.1 8.1 0.01 1.0 1.0 38.6817305917 0.0 0.0
13 -14.175 -6.075 8.1 0.01 1.0 1.0 38.6817305917 0.0 0.0
13 -16.2 -6.075 10.125 0.01 1.0 1.0 38.6817305917 0.0 0.0
13 -14.175 -8.1 10.125 0.01 1.0 1.0 38.6817305917 0.0 0.0
13 -16.2 -8.1 12.15 0.01 1.0 1.0 38.6817305917 0.0 0.0
13 -14.175 -6.075 12.15 0.01 1.0 1.0 38.6817305917 0.0 0.0
13 -16.2 -6.075 14.175 0.01 1.0 1.0 38.6817305917 0.0 0.0
13 -14.175 -8.1 14.175 0.01 1.0 1.0 38.6817305917 0.0 0.0
13 -16.2 -8.1 16.2 0.01 1.0 1.0 38.6817305917 0.0 0.0
13 -14.175 -6.075 16.2 0.01 1.0 1.0 38.6817305917 0.0 0.0
13 -16.2 -6.075 18.225 0.01 1.0 1.0 38.6817305917 0.0 0.0
13 -14.175 -8.1 18.225 0.01 1.0 1.0 38.6817305917 0.0 0.0
13 -16.2 -8.1 20.25 0.01 1.0 1.0 38.6817305917 0.0 0.0
13 -14.175 -6.075 20.25 0.01 1.0 1.0 38.6817305917 0.0 0.0
13 -16.2 -6.075 22.275 0.01 1.0 1.0 38.6817305917 0.0 0.0
13 -14.175 -8.1 22.275 0.01 1.0 1.0 38.6817305917 0.0 0.0
13 -16.2 -4.05 -16.2 0.01 1.0 1.0 38.6817305917 0.0 0.0
13 -14.175 -2.025 -16.2 0.01 1.0 1.0 38.6817305917 0.0 0.0
13 -16.2 -2.025 -14.175 0.01 1.0 1.0 38.6817305917 0.0 0.0
13 -14.175 -4.05 -14.175 0.01 1.0 1.0 38.6817305917 0.0 0.0
13 -16.2 -4.05 -12.15 0.01 1.0 1.0 38.6817305917 0.0 0.0
13 -14.175 -2.025 -12.15 0.01 1.0 1.0 38.6817305917 0.0 0.0
13 -16.2 -2.025 -10.125 0.01 1.0 1.0 38.6817305917 0.0 0.0
13 -14.175 -4.05 -10.125 0.01 1.0 1.0 38.6817305917 0.0 0.0
13 -16.2 -4.05 -8.1 0.01 1.0 1.0 38.6817305917 0.0 0.0
13 -14.175 -2.025 -8.1 0.01 1.0 1.0 38.6817305917 0.0 0.0
13 -16.2 -2.025 -6.075 0.01 1.0 1.0 38.6817305917 0.0 0.0
13 -14.175 -4.05 -6.075 0.01 1.0 1.0 38.6817305917 0.0 0.0
13 -16.2 -4.05 -4.05 0.01 1.0 1.0 38.6817305917 0.0 0.0
13 -14.175 -2.025 -4.05 0.01 1.0 1.0 38.6817305917 0.0 0.0
13 -16.2 -2.025 -2.025 0.01 1.0 1.0 38.6817305917 0.0 0.0
13 -14.175 -4.05 -2.025 0.01 1.0 1.0 38.6817305917 0.0 0.0
13 -16.2 -4.05 0.0 0.01 1.0 1.0 38.6817305917 0.0 0.0
13 -14.175 -2.025 0.0 0.01 1.0 1.0 38.6817305917 0.0 0.0
13 -16.2 -2.025 2.025 0.01 1.0 1.0 38.6817305917 0.0 0.0
13 -14.175 -4.05 2.025 0.01 1.0 1.0 38.6817305917 0.0 0.0
13 -16.2 -4.05 4.05 0.01 1.0 1.0 38.6817305917 0.0 0.0
13 -14.175 -2.025 4.05 0.01 1.0 1.0 38.6817305917 0.0 0.0
13 -16.2 -2.025 6.075 0.01 1.0 1.0 38.6817305917 0.0 0.0
13 -14.175 -4.05 6.075 0.01 1.0 1.0 38.6817305917 0.0 0.0
13 -16.2 -4.05 8.1 0.01 1.0 1.0 38.6817305917 0.0 0.0
13 -14.175 -2.025 8.1 0.01 1.0 1.0 38.6817305917 0.0 0.0
13 -16.2 -2.025 10.125 0.01 1.0 1.0 38.6817305917 0.0 0.0
13 -14.175 -4.05 10.125 0.01 1.0 1.0 38.6817305917 0.0 0.0
13 -16.2 -4.05 12.15 0.01 1.0 1.0 38.6817305917 0.0 0.0
13 -14.175 -2.025 12.15 0.01 1.0 1.0 38.6817305917 0.0 0.0
13 -16.2 -2.025 14.175 0.01 1.0 1.0 38.6817305917 0.0 0.0
13 -14.175 -4.05 14.175 0.01 1.0 1.0 38.6817305917 0.0 0.0
13 -16.2 -4.05 16.2 0.01 1.0 1.0 38.6817305917 0.0 0.0
13 -14.175 -2.025 16.2 0.01 1.0 1.0 38.6817305917 0.0 0.0
13 -16.2 -2.025 18.225 0.01 1.0 1.0 38.6817305917 0.0 0.0
13 -14.175 -4.05 18.225 0.01 1.0 1.0 38.6817305917 0.0 0.0
13 -16.2 -4.05 20.25 0.01 1.0 1.0 38.6817305917 0.0 0.0
13 -14.175 -2.025 20.25 0.01 1.0 1.0 38.6817305917 0.0 0.0
13 -16.2 -2.025 22.275 0.01 1.0 1.0 38.6817305917 0.0 0.0
13 -14.175 -4.05 22.275 0.01 1.0 1.0 38.6817305917 0.0 0.0
13 -16.2 0.0 -16.2 0.01 1.0 1.0 38.6817305917 0.0 0.0
13 -14.175 2.025 -16.2 0.01 1.0 1.0 38.6817305917 0.0 0.0
13 -16.2 2.025 -14.175 0.01 1.0 1.0 38.6817305917 0.0 0.0
13 -14.175 0.0 -14.175 0.01 1.0 1.0 38.6817305917 0.0 0.0
13 -16.2 0.0 -12.15 0.01 1.0 1.0 38.6817305917 0.0 0.0
13 -14.175 2.025 -12.15 0.01 1.0 1.0 38.6817305917 0.0 0.0
13 -16.2 2.025 -10.125 0.01 1.0 1.0 38.6817305917 0.0 0.0
13 -14.175 0.0 -10.125 0.01 1.0 1.0 38.6817305917 0.0 0.0
13 -16.2 0.0 -8.1 0.01 1.0 1.0 38.6817305917 0.0 0.0
13 -14.175 2.025 -8.1 0.01 1.0 1.0 38.6817305917 0.0 0.0
13 -16.2 2.025 -6.075 0.01 1.0 1.0 38.6817305917 0.0 0.0
13 -14.175 0.0 -6.075 0.01 1.0 1.0 38.6817305917 0.0 0.0
13 -16.2 0.0 -4.05 0.01 1.0 1.0 38.6817305917 0.0 0.0
13 -14.175 2.025 -4.05 0.01 1.0 1.0 38.6817305917 0.0 0.0
13 -16.2 2.025 -2.025 0.01 1.0 1.0 38.6817305917 0.0 0.0
13 -14.175 0.0 -2.025 0.01 1.0 1.0 38.6817305917 0.0 0.0
13 -16.2 0.0 0.0 0.01 1.0 1.0 38.6817305917 0.0 0.0
13 -14.175 2.025 0.0 0.01 1.0 1.0 38.6817305917 0.0 0.0
13 -16.2 2.025 2.025 0.01 1.0 1.0 38.6817305917 0.0 0.0
13 -14.175 0.0 2.025 0.01 1.0 1.0 38.6817305917 0.0 0.0
13 -16.2 0.0 4.05 0.01 1.0 1.0 38.6817305917 0.0 0.0
13 -14.175 2.025 4.05 0.01 1.0 1.0 38.6817305917 0.0 0.0
13 -16.2 2.025 6.075 0.01 1.0 1.0 38.6817305917 0.0 0.0
13 -14.175 0.0 6.075 0.01 1.0 1.0 38.6817305917 0.0 0.0
13 -16.2 0.0 8.1 0.01 1.0 1.0 38.6817305917 0.0 0.0
13 -14.175 2.025 8.1 0.01 1.0 1.0 38.6817305917 0.0 0.0
13 -16.2 2.025 10.125 0.01 1.0 1.0 38.6817305917 0.0 0.0
13 -14.175 0.0 10.125 0.01 1.0 1.0 38.6817305917 0.0 0.0
13 -16.2 0.0 12.15 0.01 1.0 1.0 38.6817305917 0.0 0.0
13 -14.175 2.025 12.15 0.01 1.0 1.0 38.6817305917 0.0 0.0
13 -16.2 2.025 14.175 0.01 1.0 1.0 38.6817305917 0.0 0.0
13 -14.175 0.0 14.175 0.01 1.0 1.0 38.6817305917 0.0 0.0
13 -16.2 0.0 16.2 0.01 1.0 1.0 38.6817305917 0.0 0.0
13 -14.175 2.025 16.2 0.01 1.0 1.0 38.6817305917 0.0 0.0
13 -16.2 2.025 18.225 0.01 1.0 1.0 38.6817305917 0.0 0.0
13 -14.175 0.0 18.225 0.01 1.0 1.0 38.6817305917 0.0 0.0
13 -16.2 0.0 20.25 0.01 1.0 1.0 38.6817305917 0.0 0.0
13 -14.175 2.025 20.25 0.01 1.0 1.0 38.6817305917 0.0 0.0
13 -16.2 2.025 22.275 0.01 1.0 1.0 38.6817305917 0.0 0.0
13 -14.175 0.0 22.275 0.01 1.0 1.0 38.6817305917 0.0 0.0
13 -16.2 4.05 -16.2 0.01 1.0 1.0 38.6817305917 0.0 0.0
13 -14.175 6.075 -16.2 0.01 1.0 1.0 38.6817305917 0.0 0.0
13 -16.2 6.075 -14.175 0.01 1.0 1.0 38.6817305917 0.0 0.0
13 -14.175 4.05 -14.175 0.01 1.0 1.0 38.6817305917 0.0 0.0
13 -16.2 4.05 -12.15 0.01 1.0 1.0 38.6817305917 0.0 0.0
13 -14.175 6.075 -12.15 0.01 1.0 1.0 38.6817305917 0.0 0.0
13 -16.2 6.075 -10.125 0.01 1.0 1.0 38.6817305917 0.0 0.0
13 -14.175 4.05 -10.125 0.01 1.0 1.0 38.6817305917 0.0 0.0
13 -16.2 4.05 -8.1 0.01 1.0 1.0 38.6817305917 0.0 0.0
13 -14.175 6.075 -8.1 0.01 1.0 1.0 38.6817305917 0.0 0.0
13 -16.2 6.075 -6.075 0.01 1.0 1.0 38.6817305917 0.0 0.0
13 -14.175 4.05 -6.075 0.01 1.0 1.0 38.6817305917 0.0 0.0
13 -16.2 4.05 -4.05 0.01 1.0 1.0 38.6817305917 0.0 0.0
13 -14.175 6.075 -4.05 0.01 1.0 1.0 38.6817305917 0.0 0.0
13 -16.2 6.075 -2.025 0.01 1.0 1.0 38.6817305917 0.0 0.0
13 -14.175 4.05 -2.025 0.01 1.0 1.0 38.6817305917 0.0 0.0
13 -16.2 4.05 0.0 0.01 1.0 1.0 38.6817305917 0.0 0.0
13 -14.175 6.075 0.0 0.01 1.0 1.0 38.6817305917 0.0 0.0
13 -16.2 6.075 2.025 0.01 1.0 1.0 38.6817305917 0.0 0.0
13 -14.175 4.05 2.025 0.01 1.0 1.0 38.6817305917 0.0 0.0
13 -16.2 4.05 4.05 0.01 1.0 1.0 38.6817305917 0.0 0.0
13 -14.175 6.075 4.05 0.01 1.0 1.0 38.6817305917 0.0 0.0
13 -16.2 6.075 6.075 0.01 1.0 1.0 38.6817305917 0.0 0.0
13 -14.175 4.05 6.075 0.01 1.0 1.0 38.6817305917 0.0 0.0
13 -16.2 4.05 8.1 0.01 1.0 1.0 38.6817305917 0.0 0.0
13 -14.175 6.075 8.1 0.01 1.0 1.0 38.6817305917 0.0 0.0
13 -16.2 6.075 10.125 0.01 1.0 1.0 38.6817305917 0.0 0.0
13 -14.175 4.05 10.125 0.01 1.0 1.0 38.6817305917 0.0 0.0
13 -16.2 4.05 12.15 0.01 1.0 1.0 38.6817305917 0.0 0.0
13 -14.175 6.075 12.15 0.01 1.0 1.0 38.6817305917 0.0 0.0
13 -16.2 6.075 14.175 0.01 1.0 1.0 38.6817305917 0.0 0.0
13 -14.175 4.05 14.175 0.01 1.0 1.0 38.6817305917 0.0 0.0
13 -16.2 4.05 16.2 0.01 1.0 1.0 38.6817305917 0.0 0.0
13 -14.175 6.075 16.2 0.01 1.0 1.0 38.6817305917 0.0 0.0
13 -16.2 6.075 18.225 0.01 1.0 1.0 38.6817305917 0.0 0.0
13 -14.175 4.05 18.225 0.01 1.0 1.0 38.6817305917 0.0 0.0
13 -16.2 4.05 20.25 0.01 1.0 1.0 38.6817305917 0.0 0.0
13 -14.175 6.075 20.25 0.01 1.0 1.0 38.6817305917 0.0 0.0
13 -16.2 6.075 22.275 0.01 1.0 1.0 38.6817305917 0.0 0.0
13 -14.175 4.05 22.275 0.01 1.0 1.0 38.6817305917 0.0 0.0
13 -16.2 8.1 -16.2 0.01 1.0 1.0 38.6817305917 0.0 0.0
13 -14.175 10.125 -16.2 0.01 1.0 1.0 38.6817305917 0.0 0.0
13 -16.2 10.125 -14.175 0.01 1.0 1.0 38.6817305917 0.0 0.0
13 -14.175 8.1 -14.175 0.01 1.0 1.0 38.6817305917 0.0 0.0
13 -16.2 8.1 -12.15 0.01 1.0 1.0 38.6817305917 0.0 0.0
13 -14.175 10.125 -12.15 0.01 1.0 1.0 38.6817305917 0.0 0.0
13 -16.2 10.125 -10.125 0.01 1.0 1.0 38.6817305917 0.0 0.0
13 -14.175 8.1 -10.125 0.01 1.0 1.0 38.6817305917 0.0 0.0
13 -16.2 8.1 -8.1 0.01 1.0 1.0 38.6817305917 0.0 0.0
13 -14.175 10.125 -8.1 0.01 1.0 1.0 38.6817305917 0.0 0.0
13 -16.2 10.125 -6.075 0.01 1.0 1.0 38.6817305917 0.0 0.0
13 -14.175 8.1 -6.075 0.01 1.0 1.0 38.6817305917 0.0 0.0
13 -16.2 8.1 -4.05 0.01 1.0 1.0 38.6817305917 0.0 0.0
13 -14.175 10.125 -4.05 0.01 1.0 1.0 38.6817305917 0.0 0.0
13 -16.2 10.125 -2.025 0.01 1.0 1.0 38.6817305917 0.0 0.0
13 -14.175 8.1 -2.025 0.01 1.0 1.0 38.6817305917 0.0 0.0
13 -16.2 8.1 0.0 0.01 1.0 1.0 38.6817305917 0.0 0.0
13 -14.175 10.125 0.0 0.01 1.0 1.0 38.6817305917 0.0 0.0
13 -16.2 10.125 2.025 0.01 1.0 1.0 38.6817305917 0.0 0.0
13 -14.175 8.1 2.025 0.01 1.0 1.0 38.6817305917 0.0 0.0
13 -16.2 8.1 4.05 0.01 1.0 1.0 38.6817305917 0.0 0.0
13 -14.175 10.125 4.05 0.01 1.0 1.0 38.6817305917 0.0 0.0
13 -16.2 10.125 6.075 0.01 1.0 1.0 38.6817305917 0.0 0.0
13 -14.175 8.1 6.075 0.01 1.0 1.0 38.6817305917 0.0 0.0
13 -16.2 8.1 8.1 0.01 1.0 1.0 38.6817305917 0.0 0.0
13 -14.175 10.125 8.1 0.01 1.0 1.0 38.6817305917 0.0 0.0
13 -16.2 10.125 10.125 0.01 1.0 1.0 38.6817305917 0.0 0.0
13 -14.175 8.1 10.125 0.01 1.0 1.0 38.6817305917 0.0 0.0
13 -16.2 8.1 12.15 0.01 1.0 1.0 38.6817305917 0.0 0.0
13 -14.175 10.125 12.15 0.01 1.0 1.0 38.6817305917 0.0 0.0
13 -16.2 10.125 14.175 0.01 1.0 1.0 38.6817305917 0.0 0.0
13 -14.175 8.1 14.175 0.01 1.0 1.0 38.6817305917 0.0 0.0
13 -16.2 8.1 16.2 0.01 1.0 1.0 38.6817305917 0.0 0.0
13 -14.175 10.125 16.2 0.01 1.0 1.0 38.6817305917 0.0 0.0
13 -16.2 10.125 18.225 0.01 1.0 1.0 38.6817305917 0.0 0.0
13 -14.175 8.1 18.225 0.01 1.0 1.0 38.6817305917 0.0 0.0
13 -16.2 8.1 20.25 0.01 1.0 1.0 38.6817305917 0.0 0.0
13 -14.175 10.125 20.25 0.01 1.0 1.0 38.6817305917 0.0 0.0
13 -16.2 10.125 22.275 0.01 1.0 1.0 38.6817305917 0.0 0.0
13 -14.175 8.1 22.275 0.01 1.0 1.0 38.6817305917 0.0 0.0
13 -16.2 12.15 -16.2 0.01 1.0 1.0 38.6817305917 0.0 0.0
13 -14.175 14.175 -16.2 0.01 1.0 1.0 38.6817305917 0.0 0.0
13 -16.2 14.175 -14.175 0.01 1.0 1.0 38.6817305917 0.0 0.0
13 -14.175 12.15 -14.175 0.01 1.0 1.0 38.6817305917 0.0 0.0
13 -16.2 12.15 -12.15 0.01 1.0 1.0 38.6817305917 0.0 0.0
13 -14.175 14.175 -12.15 0.01 1.0 1.0 38.6817305917 0.0 0.0
13 -16.2 14.175 -10.125 0.01 1.0 1.0 38.6817305917 0.0 0.0
13 -14.175 12.15 -10.125 0.01 1.0 1.0 38.6817305917 0.0 0.0
13 -16.2 12.15 -8.1 0.01 1.0 1.0 38.6817305917 0.0 0.0
13 -14.175 14.175 -8.1 0.01 1.0 1.0 38.6817305917 0.0 0.0
13 -16.2 14.175 -6.075 0.01 1.0 1.0 38.6817305917 0.0 0.0
13 -14.175 12.15 -6.075 0.01 1.0 1.0 38.6817305917 0.0 0.0
13 -16.2 12.15 -4.05 0.01 1.0 1.0 38.6817305917 0.0 0.0
13 -14.175 14.175 -4.05 0.01 1.0 1.0 38.6817305917 0.0 0.0
13 -16.2 14.175 -2.025 0.01 1.0 1.0 38.6817305917 0.0 0.0
13 -14.175 12.15 -2.025 0.01 1.0 1.0 38.6817305917 0.0 0.0
13 -16.2 12.15 0.0 0.01 1.0 1.0 38.6817305917 0.0 0.0
13 -14.175 14.175 0.0 0.01 1.0 1.0 38.6817305917 0.0 0.0
13 -16.2 14.175 2.025 0.01 1.0 1.0 38.6817305917 0.0 0.0
13 -14.175 12.15 2.025 0.01 1.0 1.0 38.6817305917 0.0 0.0
13 -16.2 12.15 4.05 0.01 1.0 1.0 38.6817305917 0.0 0.0
13 -14.175 14.175 4.05 0.01 1.0 1.0 38.6817305917 0.0 0.0
13 -16.2 14.175 6.075 0.01 1.0 1.0 38.6817305917 0.0 0.0
13 -14.175 12.15 6.075 0.01 1.0 1.0 38.6817305917 0.0 0.0
13 -16.2 12.15 8.1 0.01 1.0 1.0 38.6817305917 0.0 0.0
13 -14.175 14.175 8.1 0.01 1.0 1.0 38.6817305917 0.0 0.0
13 -16.2 14.175 10.125 0.01 1.0 1.0 38.6817305917 0.0 0.0
13 -14.175 12.15 10.125 0.01 1.0 1.0 38.6817305917 0.0 0.0
13 -16.2 12.15 12.15 0.01 1.0 1.0 38.6817305917 0.0 0.0
13 -14.175 14.175 12.15 0.01 1.0 1.0 38.6817305917 0.0 0.0
13 -16.2 14.175 14.175 0.01 1.0 1.0 38.6817305917 0.0 0.0
13 -14.175 12.15 14.175 0.01 1.0 1.0 38.6817305917 0.0 0.0
13 -16.2 12.15 16.2 0.01 1.0 1.0 38.6817305917 0.0 0.0
13 -14.175 14.175 16.2 0.01 1.0 1.0 38.6817305917 0.0 0.0
13 -16.2 14.175 18.225 0.01 1.0 1.0 38.6817305917 0.0 0.0
13 -14.175 12.15 18.225 0.01 1.0 1.0 38.6817305917 0.0 0.0
13 -16.2 12.15 20.25 0.01 1.0 1.0 38.6817305917 0.0 0.0
13 -14.175 14.175 20.25 0.01 1.0 1.0 38.6817305917 0.0 0.0
13 -16.2 14.175 22.275 0.01 1.0 1.0 38.6817305917 0.0 0.0
13 -14.175 12.15 22.275 0.01 1.0 1.0 38.6817305917 0.0 0.0
13 -16.2 16.2 -16.2 0.01 1.0 1.0 38.6817305917 0.0 0.0
13 -14.175 18.225 -16.2 0.01 1.0 1.0 38.6817305917 0.0 0.0
13 -16.2 18.225 -14.175 0.01 1.0 1.0 38.6817305917 0.0 0.0
13 -14.175 16.2 -14.175 0.01 1.0 1.0 38.6817305917 0.0 0.0
13 -16.2 16.2 -12.15 0.01 1.0 1.0 38.6817305917 0.0 0.0
13 -14.175 18.225 -12.15 0.01 1.0 1.0 38.6817305917 0.0 0.0
13 -16.2 18.225 -10.125 0.01 1.0 1.0 38.6817305917 0.0 0.0
13 -14.175 16.2 -10.125 0.01 1.0 1.0 38.6817305917 0.0 0.0
13 -16.2 16.2 -8.1 0.01 1.0 1.0 38.6817305917 0.0 0.0
13 -14.175 18.225 -8.1 0.01 1.0 1.0 38.6817305917 0.0 0.0
13 -16.2 18.225 -6.075 0.01 1.0 1.0 38.6817305917 0.0 0.0
13 -14.175 16.2 -6.075 0.01 1.0 1.0 38.6817305917 0.0 0.0
13 -16.2 16.2 -4.05 0.01 1.0 1.0 38.6817305917 0.0 0.0
13 -14.175 18.225 -4.05 0.01 1.0 1.0 38.6817305917 0.0 0.0
13 -16.2 18.225 -2.025 0.01 1.0 1.0 38.6817305917 0.0 0.0
13 -14.175 16.2 -2.025 0.01 1.0 1.0 38.6817305917 0.0 0.0
13 -16.2 16.2 0.0 0.01 1.0 1.0 38.6817305917 0.0 0.0
13 -14.175 18.225 0.0 0.01 1.0 1.0 38.6817305917 0.0 0.0
13 -16.2 18.225 2.025 0.01 1.0 1.0 38.6817305917 0.0 0.0
13 -14.175 16.2 2.025 0.01 1.0 1.0 38.6817305917 0.0 0.0
13 -16.2 16.2 4.05 0.01 1.0 1.0 38.6817305917 0.0 0.0
13 -14.175 18.225 4.05 0.01 1.0 1.0 38.6817305917 0.0 0.0
13 -16.2 18.225 6.075 0.01 1.0 1.0 38.6817305917 0.0 0.0
13 -14.175 16.2 6.075 0.01 1.0 1.0 38.6817305917 0.0 0.0
13 -16.2 16.2 8.1 0.01 1.0 1.0 38.6817305917 0.0 0.0
13 -14.175 18.225 8.1 0.01 1.0 1.0 38.6817305917 0.0 0.0
13 -16.2 18.225 10.125 0.01 1.0 1.0 38.6817305917 0.0 0.0
13 -14.175 16.2 10.125 0.01 1.0 1.0 38.6817305917 0.0 0.0
13 -16.2 16.2 12.15 0.01 1.0 1.0 38.6817305917 0.0 0.0
13 -14.175 18.225 12.15 0.01 1.0 1.0 38.6817305917 0.0 0.0
13 -16.2 18.225 14.175 0.01 1.0 1.0 38.6817305917 0.0 0.0
13 -14.175 16.2 14.175 0.01 1.0 1.0 38.6817305917 0.0 0.0
13 -16.2 16.2 16.2 0.01 1.0 1.0 38.6817305917 0.0 0.0
13 -14.175 18.225 16.2 0.01 1.0 1.0 38.6817305917 0.0 0.0
13 -16.2 18.225 18.225 0.01 1.0 1.0 38.6817305917 0.0 0.0
13 -14.175 16.2 18.225 0.01 1.0 1.0 38.6817305917 0.0 0.0
13 -16.2 16.2 20.25 0.01 1.0 1.0 38.6817305917 0.0 0.0
13 -14.175 18.225 20.25 0.01 1.0 1.0 38.6817305917 0.0 0.0
13 -16.2 18.225 22.275 0.01 1.0 1.0 38.6817305917 0.0 0.0
13 -14.175 16.2 22.275 0.01 1.0 1.0 38.6817305917 0.0 0.0
13 -16.2 20.25 -16.2 0.01 1.0 1.0 38.6817305917 0.0 0.0
13 -14.175 22.275 -16.2 0.01 1.0 1.0 38.6817305917 0.0 0.0
13 -16.2 22.275 -14.175 0.01 1.0 1.0 38.6817305917 0.0 0.0
13 -14.175 20.25 -14.175 0.01 1.0 1.0 38.6817305917 0.0 0.0
13 -16.2 20.25 -12.15 0.01 1.0 1.0 38.6817305917 0.0 0.0
13 -14.175 22.275 -12.15 0.01 1.0 1.0 38.6817305917 0.0 0.0
13 -16.2 22.275 -10.125 0.01 1.0 1.0 38.6817305917 0.0 0.0
13 -14.175 20.25 -10.125 0.01 1.0 1.0 38.6817305917 0.0 0.0
13 -16.2 20.25 -8.1 0.01 1.0 1.0 38.6817305917 0.0 0.0
13 -14.175 22.275 -8.1 0.01 1.0 1.0 38.6817305917 0.0 0.0
13 -16.2 22.275 -6.075 0.01 1.0 1.0 38.6817305917 0.0 0.0
13 -14.175 20.25 -6.075 0.01 1.0 1.0 38.6817305917 0.0 0.0
13 -16.2 20.25 -4.05 0.01 1.0 1.0 38.6817305917 0.0 0.0
13 -14.175 22.275 -4.05 0.01 1.0 1.0 38.6817305917 0.0 0.0
13 -16.2 22.275 -2.025 0.01 1.0 1.0 38.6817305917 0.0 0.0
13 -14.175 20.25 -2.025 0.01 1.0 1.0 38.6817305917 0.0 0.0
13 -16.2 20.25 0.0 0.01 1.0 1.0 38.6817305917 0.0 0.0
13 -14.175 22.275 0.0 0.01 1.0 1.0 38.6817305917 0.0 0.0
13 -16.2 22.275 2.025 0.01 1.0 1.0 38.6817305917 0.0 0.0
13 -14.175 20.25 2.025 0.01 1.0 1.0 38.6817305917 0.0 0.0
13 -16.2 20.25 4.05 0.01 1.0 1.0 38.6817305917 0.0 0.0
13 -14.175 22.275 4.05 0.01 1.0 1.0 38.6817305917 0.0 0.0
13 -16.2 22.275 6.075 0.01 1.0 1.0 38.6817305917 0.0 0.0
13 -14.175 20.25 6.075 0.01 1.0 1.0 38.6817305917 0.0 0.0
13 -16.2 20.25 8.1 0.01 1.0 1.0 38.6817305917 0.0 0.0
13 -14.175 22.275 8.1 0.01 1.0 1.0 38.6817305917 0.0 0.0
13 -16.2 22.275 10.125 0.01 1.0 1.0 38.6817305917 0.0 0.0
13 -14.175 20.25 10.125 0.01 1.0 1.0 38.6817305917 0.0 0.0
13 -16.2 20.25 12.15 0.01 1.0 1.0 38.6817305917 0.0 0.0
13 -14.175 22.275 12.15 0.01 1.0 1.0 38.6817305917 0.0 0.0
13 -16.2 22.275 14.175 0.01 1.0 1.0 38.6817305917 0.0 0.0
13 -14.175 20.25 14.175 0.01 1.0 1.0 38.6817305917 0.0 0.0
13 -16.2 20.25 16.2 0.01 1.0 1.0 38.6817305917 0.0 0.0
13 -14.175 22.275 16.2 0.01 1.0 1.0 38.6817305917 0.0 0.0
13 -16.2 22.275 18.225 0.01 1.0 1.0 38.6817305917 0.0 0.0
13 -14.175 20.25 18.225 0.01 1.0 1.0 38.6817305917 0.0 0.0
13 -16.2 20.25 20.25 0.01 1.0 1.0 38.6817305917 0.0 0.0
13 -14.175 22.275 20.25 0.01 1.0 1.0 38.6817305917 0.0 0.0
13 -16.2 22.275 22.275 0.01 1.0 1.0 38.6817305917 0.0 0.0
13 -14.175 20.25 22.275 0.01 1.0 1.0 38.6817305917 0.0 0.0
13 -12.15 -16.2 -16.2 0.01 1.0 1.0 38.6817305917 0.0 0.0
13 -10.125 -14.175 -16.2 0.01 1.0 1.0 38.6817305917 0.0 0.0
13 -12.15 -14.175 -14.175 0.01 1.0 1.0 38.6817305917 0.0 0.0
13 -10.125 -16.2 -14.175 0.01 1.0 1.0 38.6817305917 0.0 0.0
13 -12.15 -16.2 -12.15 0.01 1.0 1.0 38.6817305917 0.0 0.0
13 -10.125 -14.175 -12.15 0.01 1.0 1.0 38.6817305917 0.0 0.0
13 -12.15 -14.175 -10.125 0.01 1.0 1.0 38.6817305917 0.0 0.0
13 -10.125 -16.2 -10.125 0.01 1.0 1.0 38.6817305917 0.0 0.0
13 -12.15 -16.2 -8.1 0.01 1.0 1.0 38.6817305917 0.0 0.0
13 -10.125 -14.175 -8.1 0.01 1.0 1.0 38.6817305917 0.0 0.0
13 -12.15 -14.175 -6.075 0.01 1.0 1.0 38.6817305917 0.0 0.0
13 -10.125 -16.2 -6.075 0.01 1.0 1.0 38.6817305917 0.0 0.0
13 -12.15 -16.2 -4.05 0.01 1.0 1.0 38.6817305917 0.0 0.0
13 -10.125 -14.175 -4.05 0.01 1.0 1.0 38.6817305917 0.0 0.0
13 -12.15 -14.175 -2.025 0.01 1.0 1.0 38.6817305917 0.0 0.0
13 -10.125 -16.2 -2.025 0.01 1.0 1.0 38.6817305917 0.0 0.0
13 -12.15 -16.2 0.0 0.01 1.0 1.0 38.6817305917 0.0 0.0
13 -10.125 -14.175 0.0 0.01 1.0 1.0 38.6817305917 0.0 0.0
13 -12.15 -14.175 2.025 0.01 1.0 1.0 38.6817305917 0.0 0.0
13 -10.125 -16.2 2.025 0.01 1.0 1.0 38.6817305917 0.0 0.0
13 -12.15 -16.2 4.05 0.01 1.0 1.0 38.6817305917 0.0 0.0
13 -10.125 -14.175 4.05 0.01 1.0 1.0 38.6817305917 0.0 0.0
13 -12.15 -14.175 6.075 0.01 1.0 1.0 38.6817305917 0.0 0.0
13 -10.125 -16.2 6.075 0.01 1.0 1.0 38.6817305917 0.0 0.0
13 -12.15 -16.2 8.1 0.01 1.0 1.0 38.6817305917 0.0 0.0
13 -10.125 -14.175 8.1 0.01 1.0 1.0 38.6817305917 0.0 0.0
13 -12.15 -14.175 10.125 0.01 1.0 1.0 38.6817305917 0.0 0.0
13 -10.125 -16.2 10.125 0.01 1.0 1.0 38.6817305917 0.0 0.0
13 -12.15 -16.2 12.15 0.01 1.0 1.0 38.6817305917 0.0 0.0
13 -10.125 -14.175 12.15 0.01 1.0 1.0 38.6817305917 0.0 0.0
13 -12.15 -14.175 14.175 0.01 1.0 1.0 38.6817305917 0.0 0.0
13 -10.125 -16.2 14.175 0.01 1.0 1.0 38.6817305917 0.0 0.0
13 -12.15 -16.2 16.2 0.01 1.0 1.0 38.6817305917 0.0 0.0
13 -10.125 -14.175 16.2 0.01 1.0 1.0 38.6817305917 0.0 0.0
13 -12.15 -14.175 18.225 0.01 1.0 1.0 38.6817305917 0.0 0.0
13 -10.125 -16.2 18.225 0.01 1.0 1.0 38.6817305917 0.0 0.0
13 -12.15 -16.2 20.25 0.01 1.0 1.0 38.6817305917 0.0 0.0
13 -10.125 -14.175 20.25 0.01 1.0 1.0 38.6817305917 0.0 0.0
13 -12.15 -14.175 22.275 0.01 1.0 1.0 38.6817305917 0.0 0.0
13 -10.125 -16.2 22.275 0.01 1.0 1.0 38.6817305917 0.0 0.0
13 -12.15 -12.15 -16.2 0.01 1.0 1.0 38.6817305917 0.0 0.0
13 -10.125 -10.125 -16.2 0.01 1.0 1.0 38.6817305917 0.0 0.0
13 -12.15 -10.125 -14.175 0.01 1.0 1.0 38.6817305917 0.0 0.0
13 -10.125 -12.15 -14.175 0.01 1.0 1.0 38.6817305917 0.0 0.0
13 -12.15 -12.15 -12.15 0.01 1.0 1.0 38.6817305917 0.0 0.0
13 -10.125 -10.125 -12.15 0.01 1.0 1.0 38.6817305917 0.0 0.0
13 -12.15 -10.125 -10.125 0.01 1.0 1.0 38.6817305917 0.0 0.0
13 -10.125 -12.15 -10.125 0.01 1.0 1.0 38.6817305917 0.0 0.0
13 -12.15 -12.15 -8.1 0.01 1.0 1.0 38.6817305917 0.0 0.0
13 -10.125 -10.125 -8.1 0.01 1.0 1.0 38.6817305917 0.0 0.0
13 -12.15 -10.125 -6.075 0.01 1.0 1.0 38.6817305917 0.0 0.0
13 -10.125 -12.15 -6.075 0.01 1.0 1.0 38.6817305917 0.0 0.0
13 -12.15 -12.15 -4.05 0.01 1.0 1.0 38.6817305917 0.0 0.0
13 -10.125 -10.125 -4.05 0.01 1.0 1.0 38.6817305917 0.0 0.0
13 -12.15 -10.125 -2.025 0.01 1.0 1.0 38.6817305917 0.0 0.0
13 -10.125 -12.15 -2.025 0.01 1.0 1.0 38.6817305917 0.0 0.0
13 -12.15 -12.15 0.0 0.01 1.0 1.0 38.6817305917 0.0 0.0
13 -10.125 -10.125 0.0 0.01 1.0 1.0 38.6817305917 0.0 0.0
13 -12.15 -10.125 2.025 0.01 1.0 1.0 38.6817305917 0.0 0.0
13 -10.125 -12.15 2.025 0.01 1.0 1.0 38.6817305917 0.0 0.0
13 -12.15 -12.15 4.05 0.01 1.0 1.0 38.6817305917 0.0 0.0
13 -10.125 -10.125 4.05 0.01 1.0 1.0 38.6817305917 0.0 0.0
13 -12.15 -10.125 6.075 0.01 1.0 1.0 38.6817305917 0.0 0.0
13 -10.125 -12.15 6.075 0.01 1.0 1.0 38.6817305917 0.0 0.0
13 -12.15 -12.15 8.1 0.01 1.0 1.0 38.6817305917 0.0 0.0
13 -10.125 -10.125 8.1 0.01 1.0 1.0 38.6817305917 0.0 0.0
13 -12.15 -10.125 10.125 0.01 1.0 1.0 38.6817305917 0.0 0.0
13 -10.125 -12.15 10.125 0.01 1.0 1.0 38.6817305917 0.0 0.0
13 -12.15 -12.15 12.15 0.01 1.0 1.0 38.6817305917 0.0 0.0
13 -10.125 -10.125 12.15 0.01 1.0 1.0 38.6817305917 0.0 0.0
13 -12.15 -10.125 14.175 0.01 1.0 1.0 38.6817305917 0.0 0.0
13 -10.125 -12.15 14.175 0.01 1.0 1.0 38.6817305917 0.0 0.0
13 -12.15 -12.15 16.2 0.01 1.0 1.0 38.6817305917 0.0 0.0
13 -10.125 -10.125 16.2 0.01 1.0 1.0 38.6817305917 0.0 0.0
13 -12.15 -10.125 18.225 0.01 1.0 1.0 38.6817305917 0.0 0.0
13 -10.125 -12.15 18.225 0.01 1.0 1.0 38.6817305917 0.0 0.0
13 -12.15 -12.15 20.25 0.01 1.0 1.0 38.6817305917 0.0 0.0
13 -10.125 -10.125 20.25 0.01 1.0 1.0 38.6817305917 0.0 0.0
13 -12.15 -10.125 22.275 0.01 1.0 1.0 38.6817305917 0.0 0.0
13 -10.125 -12.15 22.275 0.01 1.0 1.0 38.6817305917 0.0 0.0
13 -12.15 -8.1 -16.2 0.01 1.0 1.0 38.6817305917 0.0 0.0
13 -10.125 -6.075 -16.2 0.01 1.0 1.0 38.6817305917 0.0 0.0
13 -12.15 -6.075 -14.175 0.01 1.0 1.0 38.6817305917 0.0 0.0
13 -10.125 -8.1 -14.175 0.01 1.0 1.0 38.6817305917 0.0 0.0
13 -12.15 -8.1 -12.15 0.01 1.0 1.0 38.6817305917 0.0 0.0
13 -10.125 -6.075 -12.15 0.01 1.0 1.0 38.6817305917 0.0 0.0
13 -12.15 -6.075 -10.125 0.01 1.0 1.0 38.6817305917 0.0 0.0
13 -10.125 -8.1 -10.125 0.01 1.0 1.0 38.6817305917 0.0 0.0
13 -12.15 -8.1 -8.1 0.01 1.0 1.0 38.6817305917 0.0 0.0
13 -10.125 -6.075 -8.1 0.01 1.0 1.0 38.6817305917 0.0 0.0
13 -12.15 -6.075 -6.075 0.01 1.0 1.0 38.6817305917 0.0 0.0
13 -10.125 -8.1 -6.075 0.01 1.0 1.0 38.6817305917 0.0 0.0
13 -12.15 -8.1 -4.05 0.01 1.0 1.0 38.6817305917 0.0 0.0
13 -10.125 -6.075 -4.05 0.01 1.0 1.0 38.6817305917 0.0 0.0
13 -12.15 -6.075 -2.025 0.01 1.0 1.0 38.6817305917 0.0 0.0
13 -10.125 -8.1 -2.025 0.01 1.0 1.0 38.6817305917 0.0 0.0
13 -12.15 -8.1 0.0 0.01 1.0 1.0 38.6817305917 0.0 0.0
13 -10.125 -6.075 0.0 0.01 1.0 1.0 38.6817305917 0.0 0.0
13 -12.15 -6.075 2.025 0.01 1.0 1.0 38.6817305917 0.0 0.0
13 -10.125 -8.1 2.025 0.01 1.0 1.0 38.6817305917 0.0 0.0
13 -12.15 -8.1 4.05 0.01 1.0 1.0 38.6817305917 0.0 0.0
13 -10.125 -6.075 4.05 0.01 1.0 1.0 38.6817305917 0.0 0.0
13 -12.15 -6.075 6.075 0.01 1.0 1.0 38.6817305917 0.0 0.0
13 -10.125 -8.1 6.075 0.01 1.0 1.0 38.6817305917 0.0 0.0
13 -12.15 -8.1 8.1 0.01 1.0 1.0 38.6817305917 0.0 0.0
13 -10.125 -6.075 8.1 0.01 1.0 1.0 38.6817305917 0.0 0.0
13 -12.15 -6.075 10.125 0.01 1.0 1.0 38.6817305917 0.0 0.0
13 -10.125 -8.1 10.125 0.01 1.0 1.0 38.6817305917 0.0 0.0
13 -12.15 -8.1 12.15 0.01 1.0 1.0 38.6817305917 0.0 0.0
13 -10.125 -6.075 12.15 0.01 1.0 1.0 38.6817305917 0.0 0.0
13 -12.15 -6.075 14.175 0.01 1.0 1.0 38.6817305917 0.0 0.0
13 -10.125 -8.1 14.175 0.01 1.0 1.0 38.6817305917 0.0 0.0
13 -12.15 -8.1 16.2 0.01 1.0 1.0 38.6817305917 0.0 0.0
13 -10.125 -6.075 16.2 0.01 1.0 1.0 38.6817305917 0.0 0.0
13 -12.15 -6.075 18.225 0.01 1.0 1.0 38.6817305917 0.0 0.0
13 -10.125 -8.1 18.225 0.01 1.0 1.0 38.6817305917 0.0 0.0