ITEM: TIMESTEP
0
ITEM: NUMBER OF ATOMS
4
ITEM: BOX BOUNDS pp pp pp
-1.605 1.605
-2.779941545 2.779941545
-2.6065 2.6065
ITEM: ATOMS id type site x y z
1 1 -1 -1.605 -0.9266472002 0.0
2 1 -1 0.0 1.8532943448 0.0
3 1 -1 -1.605 -2.779941545 -2.6065
4 1 -1 0.0 0.0 -2.6065
