ITEM: TIMESTEP
0
ITEM: NUMBER OF ATOMS
4
ITEM: BOX BOUNDS pp pp pp
0.0000000000000000e+00 3.1890000000000001e+00
0.0000000000000000e+00 5.5235100253371492e+00
0.0000000000000000e+00 5.2076151931570367e+00
ITEM: ATOMS id type site x y z 
1  1 -1 0.000000 0.000000 0.00000 
2  1 -1 0.000000 1.841170 2.60381 
3  1 -1 1.594500 2.761760 0.00000 
4  1 -1 1.594500 4.602930 2.60381