# LAMMPS data file written by OVITO Basic 3.11.0

16 atoms
12 atom types

0.0 3.189 xlo xhi
0.0 5.5235100253 ylo yhi
0.0 5.2076151932 zlo zhi

Masses

1 1.008  # H
2 1.0  # XX
3 1.0  # XX
4 1.0  # XX
5 1.0  # XX
6 1.0  # XX
7 1.0  # XX
8 1.0  # XX
9 1.0  # XX
10 1.0  # XX
11 1.0  # XX
12 24.305  # Mg

Atoms  # atomic

1 12 2.3917521559 0.4602937468 0.0
2 12 0.7972521632 1.3808787468 2.60381
3 12 0.7972478368 3.2220512532 0.0
5 1 2.3917521596 2.3014637532 1.3019
7 1 2.3917521596 2.3014637532 3.90571
9 1 2.3917521559 0.4602937468 1.95286
10 1 2.3917521559 0.4602937468 3.25476
11 1 0.7972478368 3.2220512532 1.95286
12 1 0.7972478368 3.2220512532 3.25476
13 1 0.7972521632 1.3808787468 0.65095
14 1 0.7972521632 1.3808787468 4.55666
66 12 2.3917521632 4.1426337595 2.60381
70 1 0.7972521705 5.0632187595 1.3019
72 1 0.7972521705 5.0632187595 3.90571
77 1 2.3917521632 4.1426337595 0.65095
78 1 2.3917521632 4.1426337595 4.55666
