ITEM: TIMESTEP
0
ITEM: NUMBER OF ATOMS
12
ITEM: BOX BOUNDS pp pp pp
0.00000000 4.61070000
0.00000000 4.61070000
0.00000000 2.97320000
ITEM: ATOMS id type site x y z
1 1 -1 0.00000000 0.00000000 0.00000000
2 1 -1 2.30535000 2.30535000 1.48660000
3 2 1 1.40764671 1.40764671 0.00000000
4 2 1 0.89770329 3.71299671 1.48660000
5 2 1 3.20305329 3.20305329 0.00000000
6 2 1 3.71299671 0.89770329 1.48660000
7 2  2 0.00000000 0.00000000 1.48660000
8 2  2 0.00000000 2.30535000 1.48660000
9 2  2 2.30535000 0.00000000 1.48660000
10 2  2 0.00000000 2.30535000 0.00000000
11 2  2 2.30535000 0.00000000 0.00000000
12 2  2 2.30535000 2.30535000 0.00000000