# LAMMPS data file written by OVITO Basic 3.11.0

16 atoms
12 atom types

0.0 3.189 xlo xhi
0.0 5.5235100253 ylo yhi
0.0 5.2076151932 zlo zhi
 
Masses
 
            1   1.00800000              # H
            2   0.00000000              # XX
            3   0.00000000              # XX
            4   0.00000000              # XX
            5   0.00000000              # XX
            6   0.00000000              # XX
            7   0.00000000              # XX
            8   0.00000000              # XX
            9   0.00000000              # XX
           10   0.00000000              # XX
           11   0.00000000              # XX
           12   24.30500000             # Mg
           
Atoms  # atomic

1 12 0.0 0.0 0.0
2 12 0.0 1.84117 2.60381
3 12 1.5945 2.76176 0.0
4 12 1.5945 4.60293 2.60381
5 1 1.5945 0.920585 1.3019
6 1 0.0 3.68234 1.3019
7 1 1.5945 0.920585 3.90571
8 1 0.0 3.68234 3.90571
9 1 0.0 0.0 1.95286
10 1 0.0 0.0 3.25476
11 1 1.5945 2.76176 1.95286
12 1 1.5945 2.76176 3.25476
13 1 0.0 1.84117 0.65095
14 1 0.0 1.84117 4.55666
15 1 1.5945 4.60292 0.65095
16 1 1.5945 4.60292 4.55666
