ITEM: TIMESTEP
0
ITEM: NUMBER OF ATOMS
16
ITEM: BOX BOUNDS pp pp pp
0.0000000000000000e+00 3.1890000000000001e+00
0.0000000000000000e+00 5.5235100253371492e+00
0.0000000000000000e+00 5.2076151931570367e+00
ITEM: ATOMS id type site x y z 
1  12 -1 0.000000 0.000000 0.00000 
2  12 -1 0.000000 1.841170 2.60381 
3  12 -1 1.594500 2.761760 0.00000 
4  12 -1 1.594500 4.602930 2.60381 
5  1  2 1.594500 0.920585 1.30190 
6  1  2 0.000000 3.682340 1.30190 
7  1  2 1.594500 0.920585 3.90571 
8  1  2 0.000000 3.682340 3.90571 
9  1  1 0.000000 0.000000 1.95286
10 1  1 0.000000 0.000000 3.25476 
11 1  1 1.594500 2.761760 1.95286 
12 1  1 1.594500 2.761760 3.25476 
13 1  1 0.000000 1.841170 0.65095 
14 1  1 0.000000 1.841170 4.55666 
15 1  1 1.594500 4.602920 0.65095 
16 1  1 1.594500 4.602920 4.55666 