# LAMMPS data file written by OVITO Basic 3.10.6

2592 atoms
2 atom types

-12.134 24.268 xlo xhi
-12.134 24.268 ylo yhi
-9.754 19.508 zlo zhi

Atom Type Labels

1 Al
2 Cu

Atoms  # atomic

1 2 -12.134 -12.134 -8.53475
2 2 -12.134 -12.134 -6.09625
3 2 -9.1005 -9.1005 -6.09625
4 2 -9.1005 -9.1005 -8.53475
5 1 -11.1748073 -8.1413073 -9.754
6 1 -10.0596927 -11.1748073 -9.754
7 1 -7.0261927 -10.0596927 -9.754
8 1 -8.1413073 -7.0261927 -9.754
9 1 -11.1748073 -10.0596927 -7.3155
10 1 -10.0596927 -7.0261927 -7.3155
11 1 -7.0261927 -8.1413073 -7.3155
12 1 -8.1413073 -11.1748073 -7.3155
13 2 -12.134 -12.134 -3.65775
14 2 -12.134 -12.134 -1.21925
15 2 -9.1005 -9.1005 -1.21925
16 2 -9.1005 -9.1005 -3.65775
17 1 -11.1748073 -8.1413073 -4.877
18 1 -10.0596927 -11.1748073 -4.877
19 1 -7.0261927 -10.0596927 -4.877
20 1 -8.1413073 -7.0261927 -4.877
21 1 -11.1748073 -10.0596927 -2.4385
22 1 -10.0596927 -7.0261927 -2.4385
23 1 -7.0261927 -8.1413073 -2.4385
24 1 -8.1413073 -11.1748073 -2.4385
25 2 -12.134 -12.134 1.21925
26 2 -12.134 -12.134 3.65775
27 2 -9.1005 -9.1005 3.65775
28 2 -9.1005 -9.1005 1.21925
29 1 -11.1748073 -8.1413073 0.0
30 1 -10.0596927 -11.1748073 0.0
31 1 -7.0261927 -10.0596927 0.0
32 1 -8.1413073 -7.0261927 0.0
33 1 -11.1748073 -10.0596927 2.4385
34 1 -10.0596927 -7.0261927 2.4385
35 1 -7.0261927 -8.1413073 2.4385
36 1 -8.1413073 -11.1748073 2.4385
37 2 -12.134 -12.134 6.09625
38 2 -12.134 -12.134 8.53475
39 2 -9.1005 -9.1005 8.53475
40 2 -9.1005 -9.1005 6.09625
41 1 -11.1748073 -8.1413073 4.877
42 1 -10.0596927 -11.1748073 4.877
43 1 -7.0261927 -10.0596927 4.877
44 1 -8.1413073 -7.0261927 4.877
45 1 -11.1748073 -10.0596927 7.3155
46 1 -10.0596927 -7.0261927 7.3155
47 1 -7.0261927 -8.1413073 7.3155
48 1 -8.1413073 -11.1748073 7.3155
49 2 -12.134 -12.134 10.97325
50 2 -12.134 -12.134 13.41175
51 2 -9.1005 -9.1005 13.41175
52 2 -9.1005 -9.1005 10.97325
53 1 -11.1748073 -8.1413073 9.754
54 1 -10.0596927 -11.1748073 9.754
55 1 -7.0261927 -10.0596927 9.754
56 1 -8.1413073 -7.0261927 9.754
57 1 -11.1748073 -10.0596927 12.1925
58 1 -10.0596927 -7.0261927 12.1925
59 1 -7.0261927 -8.1413073 12.1925
60 1 -8.1413073 -11.1748073 12.1925
61 2 -12.134 -12.134 15.85025
62 2 -12.134 -12.134 18.28875
63 2 -9.1005 -9.1005 18.28875
64 2 -9.1005 -9.1005 15.85025
65 1 -11.1748073 -8.1413073 14.631
66 1 -10.0596927 -11.1748073 14.631
67 1 -7.0261927 -10.0596927 14.631
68 1 -8.1413073 -7.0261927 14.631
69 1 -11.1748073 -10.0596927 17.0695
70 1 -10.0596927 -7.0261927 17.0695
71 1 -7.0261927 -8.1413073 17.0695
72 1 -8.1413073 -11.1748073 17.0695
73 2 -12.134 -6.067 -8.53475
74 2 -12.134 -6.067 -6.09625
75 2 -9.1005 -3.0335 -6.09625
76 2 -9.1005 -3.0335 -8.53475
77 1 -11.1748073 -2.0743073 -9.754
78 1 -10.0596927 -5.1078073 -9.754
79 1 -7.0261927 -3.9926927 -9.754
80 1 -8.1413073 -0.9591927 -9.754
81 1 -11.1748073 -3.9926927 -7.3155
82 1 -10.0596927 -0.9591927 -7.3155
83 1 -7.0261927 -2.0743073 -7.3155
84 1 -8.1413073 -5.1078073 -7.3155
85 2 -12.134 -6.067 -3.65775
86 2 -12.134 -6.067 -1.21925
87 2 -9.1005 -3.0335 -1.21925
88 2 -9.1005 -3.0335 -3.65775
89 1 -11.1748073 -2.0743073 -4.877
90 1 -10.0596927 -5.1078073 -4.877
91 1 -7.0261927 -3.9926927 -4.877
92 1 -8.1413073 -0.9591927 -4.877
93 1 -11.1748073 -3.9926927 -2.4385
94 1 -10.0596927 -0.9591927 -2.4385
95 1 -7.0261927 -2.0743073 -2.4385
96 1 -8.1413073 -5.1078073 -2.4385
97 2 -12.134 -6.067 1.21925
98 2 -12.134 -6.067 3.65775
99 2 -9.1005 -3.0335 3.65775
100 2 -9.1005 -3.0335 1.21925
101 1 -11.1748073 -2.0743073 0.0
102 1 -10.0596927 -5.1078073 0.0
103 1 -7.0261927 -3.9926927 0.0
104 1 -8.1413073 -0.9591927 0.0
105 1 -11.1748073 -3.9926927 2.4385
106 1 -10.0596927 -0.9591927 2.4385
107 1 -7.0261927 -2.0743073 2.4385
108 1 -8.1413073 -5.1078073 2.4385
109 2 -12.134 -6.067 6.09625
110 2 -12.134 -6.067 8.53475
111 2 -9.1005 -3.0335 8.53475
112 2 -9.1005 -3.0335 6.09625
113 1 -11.1748073 -2.0743073 4.877
114 1 -10.0596927 -5.1078073 4.877
115 1 -7.0261927 -3.9926927 4.877
116 1 -8.1413073 -0.9591927 4.877
117 1 -11.1748073 -3.9926927 7.3155
118 1 -10.0596927 -0.9591927 7.3155
119 1 -7.0261927 -2.0743073 7.3155
120 1 -8.1413073 -5.1078073 7.3155
121 2 -12.134 -6.067 10.97325
122 2 -12.134 -6.067 13.41175
123 2 -9.1005 -3.0335 13.41175
124 2 -9.1005 -3.0335 10.97325
125 1 -11.1748073 -2.0743073 9.754
126 1 -10.0596927 -5.1078073 9.754
127 1 -7.0261927 -3.9926927 9.754
128 1 -8.1413073 -0.9591927 9.754
129 1 -11.1748073 -3.9926927 12.1925
130 1 -10.0596927 -0.9591927 12.1925
131 1 -7.0261927 -2.0743073 12.1925
132 1 -8.1413073 -5.1078073 12.1925
133 2 -12.134 -6.067 15.85025
134 2 -12.134 -6.067 18.28875
135 2 -9.1005 -3.0335 18.28875
136 2 -9.1005 -3.0335 15.85025
137 1 -11.1748073 -2.0743073 14.631
138 1 -10.0596927 -5.1078073 14.631
139 1 -7.0261927 -3.9926927 14.631
140 1 -8.1413073 -0.9591927 14.631
141 1 -11.1748073 -3.9926927 17.0695
142 1 -10.0596927 -0.9591927 17.0695
143 1 -7.0261927 -2.0743073 17.0695
144 1 -8.1413073 -5.1078073 17.0695
145 2 -12.134 0.0 -8.53475
146 2 -12.134 0.0 -6.09625
147 2 -9.1005 3.0335 -6.09625
148 2 -9.1005 3.0335 -8.53475
149 1 -11.1748073 3.9926927 -9.754
150 1 -10.0596927 0.9591927 -9.754
151 1 -7.0261927 2.0743073 -9.754
152 1 -8.1413073 5.1078073 -9.754
153 1 -11.1748073 2.0743073 -7.3155
154 1 -10.0596927 5.1078073 -7.3155
155 1 -7.0261927 3.9926927 -7.3155
156 1 -8.1413073 0.9591927 -7.3155
157 2 -12.134 0.0 -3.65775
158 2 -12.134 0.0 -1.21925
159 2 -9.1005 3.0335 -1.21925
160 2 -9.1005 3.0335 -3.65775
161 1 -11.1748073 3.9926927 -4.877
162 1 -10.0596927 0.9591927 -4.877
163 1 -7.0261927 2.0743073 -4.877
164 1 -8.1413073 5.1078073 -4.877
165 1 -11.1748073 2.0743073 -2.4385
166 1 -10.0596927 5.1078073 -2.4385
167 1 -7.0261927 3.9926927 -2.4385
168 1 -8.1413073 0.9591927 -2.4385
169 2 -12.134 0.0 1.21925
170 2 -12.134 0.0 3.65775
171 2 -9.1005 3.0335 3.65775
172 2 -9.1005 3.0335 1.21925
173 1 -11.1748073 3.9926927 0.0
174 1 -10.0596927 0.9591927 0.0
175 1 -7.0261927 2.0743073 0.0
176 1 -8.1413073 5.1078073 0.0
177 1 -11.1748073 2.0743073 2.4385
178 1 -10.0596927 5.1078073 2.4385
179 1 -7.0261927 3.9926927 2.4385
180 1 -8.1413073 0.9591927 2.4385
181 2 -12.134 0.0 6.09625
182 2 -12.134 0.0 8.53475
183 2 -9.1005 3.0335 8.53475
184 2 -9.1005 3.0335 6.09625
185 1 -11.1748073 3.9926927 4.877
186 1 -10.0596927 0.9591927 4.877
187 1 -7.0261927 2.0743073 4.877
188 1 -8.1413073 5.1078073 4.877
189 1 -11.1748073 2.0743073 7.3155
190 1 -10.0596927 5.1078073 7.3155
191 1 -7.0261927 3.9926927 7.3155
192 1 -8.1413073 0.9591927 7.3155
193 2 -12.134 0.0 10.97325
194 2 -12.134 0.0 13.41175
195 2 -9.1005 3.0335 13.41175
196 2 -9.1005 3.0335 10.97325
197 1 -11.1748073 3.9926927 9.754
198 1 -10.0596927 0.9591927 9.754
199 1 -7.0261927 2.0743073 9.754
200 1 -8.1413073 5.1078073 9.754
201 1 -11.1748073 2.0743073 12.1925
202 1 -10.0596927 5.1078073 12.1925
203 1 -7.0261927 3.9926927 12.1925
204 1 -8.1413073 0.9591927 12.1925
205 2 -12.134 0.0 15.85025
206 2 -12.134 0.0 18.28875
207 2 -9.1005 3.0335 18.28875
208 2 -9.1005 3.0335 15.85025
209 1 -11.1748073 3.9926927 14.631
210 1 -10.0596927 0.9591927 14.631
211 1 -7.0261927 2.0743073 14.631
212 1 -8.1413073 5.1078073 14.631
213 1 -11.1748073 2.0743073 17.0695
214 1 -10.0596927 5.1078073 17.0695
215 1 -7.0261927 3.9926927 17.0695
216 1 -8.1413073 0.9591927 17.0695
217 2 -12.134 6.067 -8.53475
218 2 -12.134 6.067 -6.09625
219 2 -9.1005 9.1005 -6.09625
220 2 -9.1005 9.1005 -8.53475
221 1 -11.1748073 10.0596927 -9.754
222 1 -10.0596927 7.0261927 -9.754
223 1 -7.0261927 8.1413073 -9.754
224 1 -8.1413073 11.1748073 -9.754
225 1 -11.1748073 8.1413073 -7.3155
226 1 -10.0596927 11.1748073 -7.3155
227 1 -7.0261927 10.0596927 -7.3155
228 1 -8.1413073 7.0261927 -7.3155
229 2 -12.134 6.067 -3.65775
230 2 -12.134 6.067 -1.21925
231 2 -9.1005 9.1005 -1.21925
232 2 -9.1005 9.1005 -3.65775
233 1 -11.1748073 10.0596927 -4.877
234 1 -10.0596927 7.0261927 -4.877
235 1 -7.0261927 8.1413073 -4.877
236 1 -8.1413073 11.1748073 -4.877
237 1 -11.1748073 8.1413073 -2.4385
238 1 -10.0596927 11.1748073 -2.4385
239 1 -7.0261927 10.0596927 -2.4385
240 1 -8.1413073 7.0261927 -2.4385
241 2 -12.134 6.067 1.21925
242 2 -12.134 6.067 3.65775
243 2 -9.1005 9.1005 3.65775
244 2 -9.1005 9.1005 1.21925
245 1 -11.1748073 10.0596927 0.0
246 1 -10.0596927 7.0261927 0.0
247 1 -7.0261927 8.1413073 0.0
248 1 -8.1413073 11.1748073 0.0
249 1 -11.1748073 8.1413073 2.4385
250 1 -10.0596927 11.1748073 2.4385
251 1 -7.0261927 10.0596927 2.4385
252 1 -8.1413073 7.0261927 2.4385
253 2 -12.134 6.067 6.09625
254 2 -12.134 6.067 8.53475
255 2 -9.1005 9.1005 8.53475
256 2 -9.1005 9.1005 6.09625
257 1 -11.1748073 10.0596927 4.877
258 1 -10.0596927 7.0261927 4.877
259 1 -7.0261927 8.1413073 4.877
260 1 -8.1413073 11.1748073 4.877
261 1 -11.1748073 8.1413073 7.3155
262 1 -10.0596927 11.1748073 7.3155
263 1 -7.0261927 10.0596927 7.3155
264 1 -8.1413073 7.0261927 7.3155
265 2 -12.134 6.067 10.97325
266 2 -12.134 6.067 13.41175
267 2 -9.1005 9.1005 13.41175
268 2 -9.1005 9.1005 10.97325
269 1 -11.1748073 10.0596927 9.754
270 1 -10.0596927 7.0261927 9.754
271 1 -7.0261927 8.1413073 9.754
272 1 -8.1413073 11.1748073 9.754
273 1 -11.1748073 8.1413073 12.1925
274 1 -10.0596927 11.1748073 12.1925
275 1 -7.0261927 10.0596927 12.1925
276 1 -8.1413073 7.0261927 12.1925
277 2 -12.134 6.067 15.85025
278 2 -12.134 6.067 18.28875
279 2 -9.1005 9.1005 18.28875
280 2 -9.1005 9.1005 15.85025
281 1 -11.1748073 10.0596927 14.631
282 1 -10.0596927 7.0261927 14.631
283 1 -7.0261927 8.1413073 14.631
284 1 -8.1413073 11.1748073 14.631
285 1 -11.1748073 8.1413073 17.0695
286 1 -10.0596927 11.1748073 17.0695
287 1 -7.0261927 10.0596927 17.0695
288 1 -8.1413073 7.0261927 17.0695
289 2 -12.134 12.134 -8.53475
290 2 -12.134 12.134 -6.09625
291 2 -9.1005 15.1675 -6.09625
292 2 -9.1005 15.1675 -8.53475
293 1 -11.1748073 16.1266927 -9.754
294 1 -10.0596927 13.0931927 -9.754
295 1 -7.0261927 14.2083073 -9.754
296 1 -8.1413073 17.2418073 -9.754
297 1 -11.1748073 14.2083073 -7.3155
298 1 -10.0596927 17.2418073 -7.3155
299 1 -7.0261927 16.1266927 -7.3155
300 1 -8.1413073 13.0931927 -7.3155
301 2 -12.134 12.134 -3.65775
302 2 -12.134 12.134 -1.21925
303 2 -9.1005 15.1675 -1.21925
304 2 -9.1005 15.1675 -3.65775
305 1 -11.1748073 16.1266927 -4.877
306 1 -10.0596927 13.0931927 -4.877
307 1 -7.0261927 14.2083073 -4.877
308 1 -8.1413073 17.2418073 -4.877
309 1 -11.1748073 14.2083073 -2.4385
310 1 -10.0596927 17.2418073 -2.4385
311 1 -7.0261927 16.1266927 -2.4385
312 1 -8.1413073 13.0931927 -2.4385
313 2 -12.134 12.134 1.21925
314 2 -12.134 12.134 3.65775
315 2 -9.1005 15.1675 3.65775
316 2 -9.1005 15.1675 1.21925
317 1 -11.1748073 16.1266927 0.0
318 1 -10.0596927 13.0931927 0.0
319 1 -7.0261927 14.2083073 0.0
320 1 -8.1413073 17.2418073 0.0
321 1 -11.1748073 14.2083073 2.4385
322 1 -10.0596927 17.2418073 2.4385
323 1 -7.0261927 16.1266927 2.4385
324 1 -8.1413073 13.0931927 2.4385
325 2 -12.134 12.134 6.09625
326 2 -12.134 12.134 8.53475
327 2 -9.1005 15.1675 8.53475
328 2 -9.1005 15.1675 6.09625
329 1 -11.1748073 16.1266927 4.877
330 1 -10.0596927 13.0931927 4.877
331 1 -7.0261927 14.2083073 4.877
332 1 -8.1413073 17.2418073 4.877
333 1 -11.1748073 14.2083073 7.3155
334 1 -10.0596927 17.2418073 7.3155
335 1 -7.0261927 16.1266927 7.3155
336 1 -8.1413073 13.0931927 7.3155
337 2 -12.134 12.134 10.97325
338 2 -12.134 12.134 13.41175
339 2 -9.1005 15.1675 13.41175
340 2 -9.1005 15.1675 10.97325
341 1 -11.1748073 16.1266927 9.754
342 1 -10.0596927 13.0931927 9.754
343 1 -7.0261927 14.2083073 9.754
344 1 -8.1413073 17.2418073 9.754
345 1 -11.1748073 14.2083073 12.1925
346 1 -10.0596927 17.2418073 12.1925
347 1 -7.0261927 16.1266927 12.1925
348 1 -8.1413073 13.0931927 12.1925
349 2 -12.134 12.134 15.85025
350 2 -12.134 12.134 18.28875
351 2 -9.1005 15.1675 18.28875
352 2 -9.1005 15.1675 15.85025
353 1 -11.1748073 16.1266927 14.631
354 1 -10.0596927 13.0931927 14.631
355 1 -7.0261927 14.2083073 14.631
356 1 -8.1413073 17.2418073 14.631
357 1 -11.1748073 14.2083073 17.0695
358 1 -10.0596927 17.2418073 17.0695
359 1 -7.0261927 16.1266927 17.0695
360 1 -8.1413073 13.0931927 17.0695
361 2 -12.134 18.201 -8.53475
362 2 -12.134 18.201 -6.09625
363 2 -9.1005 21.2345 -6.09625
364 2 -9.1005 21.2345 -8.53475
365 1 -11.1748073 22.1936927 -9.754
366 1 -10.0596927 19.1601927 -9.754
367 1 -7.0261927 20.2753073 -9.754
368 1 -8.1413073 23.3088073 -9.754
369 1 -11.1748073 20.2753073 -7.3155
370 1 -10.0596927 23.3088073 -7.3155
371 1 -7.0261927 22.1936927 -7.3155
372 1 -8.1413073 19.1601927 -7.3155
373 2 -12.134 18.201 -3.65775
374 2 -12.134 18.201 -1.21925
375 2 -9.1005 21.2345 -1.21925
376 2 -9.1005 21.2345 -3.65775
377 1 -11.1748073 22.1936927 -4.877
378 1 -10.0596927 19.1601927 -4.877
379 1 -7.0261927 20.2753073 -4.877
380 1 -8.1413073 23.3088073 -4.877
381 1 -11.1748073 20.2753073 -2.4385
382 1 -10.0596927 23.3088073 -2.4385
383 1 -7.0261927 22.1936927 -2.4385
384 1 -8.1413073 19.1601927 -2.4385
385 2 -12.134 18.201 1.21925
386 2 -12.134 18.201 3.65775
387 2 -9.1005 21.2345 3.65775
388 2 -9.1005 21.2345 1.21925
389 1 -11.1748073 22.1936927 0.0
390 1 -10.0596927 19.1601927 0.0
391 1 -7.0261927 20.2753073 0.0
392 1 -8.1413073 23.3088073 0.0
393 1 -11.1748073 20.2753073 2.4385
394 1 -10.0596927 23.3088073 2.4385
395 1 -7.0261927 22.1936927 2.4385
396 1 -8.1413073 19.1601927 2.4385
397 2 -12.134 18.201 6.09625
398 2 -12.134 18.201 8.53475
399 2 -9.1005 21.2345 8.53475
400 2 -9.1005 21.2345 6.09625
401 1 -11.1748073 22.1936927 4.877
402 1 -10.0596927 19.1601927 4.877
403 1 -7.0261927 20.2753073 4.877
404 1 -8.1413073 23.3088073 4.877
405 1 -11.1748073 20.2753073 7.3155
406 1 -10.0596927 23.3088073 7.3155
407 1 -7.0261927 22.1936927 7.3155
408 1 -8.1413073 19.1601927 7.3155
409 2 -12.134 18.201 10.97325
410 2 -12.134 18.201 13.41175
411 2 -9.1005 21.2345 13.41175
412 2 -9.1005 21.2345 10.97325
413 1 -11.1748073 22.1936927 9.754
414 1 -10.0596927 19.1601927 9.754
415 1 -7.0261927 20.2753073 9.754
416 1 -8.1413073 23.3088073 9.754
417 1 -11.1748073 20.2753073 12.1925
418 1 -10.0596927 23.3088073 12.1925
419 1 -7.0261927 22.1936927 12.1925
420 1 -8.1413073 19.1601927 12.1925
421 2 -12.134 18.201 15.85025
422 2 -12.134 18.201 18.28875
423 2 -9.1005 21.2345 18.28875
424 2 -9.1005 21.2345 15.85025
425 1 -11.1748073 22.1936927 14.631
426 1 -10.0596927 19.1601927 14.631
427 1 -7.0261927 20.2753073 14.631
428 1 -8.1413073 23.3088073 14.631
429 1 -11.1748073 20.2753073 17.0695
430 1 -10.0596927 23.3088073 17.0695
431 1 -7.0261927 22.1936927 17.0695
432 1 -8.1413073 19.1601927 17.0695
433 2 -6.067 -12.134 -8.53475
434 2 -6.067 -12.134 -6.09625
435 2 -3.0335 -9.1005 -6.09625
436 2 -3.0335 -9.1005 -8.53475
437 1 -5.1078073 -8.1413073 -9.754
438 1 -3.9926927 -11.1748073 -9.754
439 1 -0.9591927 -10.0596927 -9.754
440 1 -2.0743073 -7.0261927 -9.754
441 1 -5.1078073 -10.0596927 -7.3155
442 1 -3.9926927 -7.0261927 -7.3155
443 1 -0.9591927 -8.1413073 -7.3155
444 1 -2.0743073 -11.1748073 -7.3155
445 2 -6.067 -12.134 -3.65775
446 2 -6.067 -12.134 -1.21925
447 2 -3.0335 -9.1005 -1.21925
448 2 -3.0335 -9.1005 -3.65775
449 1 -5.1078073 -8.1413073 -4.877
450 1 -3.9926927 -11.1748073 -4.877
451 1 -0.9591927 -10.0596927 -4.877
452 1 -2.0743073 -7.0261927 -4.877
453 1 -5.1078073 -10.0596927 -2.4385
454 1 -3.9926927 -7.0261927 -2.4385
455 1 -0.9591927 -8.1413073 -2.4385
456 1 -2.0743073 -11.1748073 -2.4385
457 2 -6.067 -12.134 1.21925
458 2 -6.067 -12.134 3.65775
459 2 -3.0335 -9.1005 3.65775
460 2 -3.0335 -9.1005 1.21925
461 1 -5.1078073 -8.1413073 0.0
462 1 -3.9926927 -11.1748073 0.0
463 1 -0.9591927 -10.0596927 0.0
464 1 -2.0743073 -7.0261927 0.0
465 1 -5.1078073 -10.0596927 2.4385
466 1 -3.9926927 -7.0261927 2.4385
467 1 -0.9591927 -8.1413073 2.4385
468 1 -2.0743073 -11.1748073 2.4385
469 2 -6.067 -12.134 6.09625
470 2 -6.067 -12.134 8.53475
471 2 -3.0335 -9.1005 8.53475
472 2 -3.0335 -9.1005 6.09625
473 1 -5.1078073 -8.1413073 4.877
474 1 -3.9926927 -11.1748073 4.877
475 1 -0.9591927 -10.0596927 4.877
476 1 -2.0743073 -7.0261927 4.877
477 1 -5.1078073 -10.0596927 7.3155
478 1 -3.9926927 -7.0261927 7.3155
479 1 -0.9591927 -8.1413073 7.3155
480 1 -2.0743073 -11.1748073 7.3155
481 2 -6.067 -12.134 10.97325
482 2 -6.067 -12.134 13.41175
483 2 -3.0335 -9.1005 13.41175
484 2 -3.0335 -9.1005 10.97325
485 1 -5.1078073 -8.1413073 9.754
486 1 -3.9926927 -11.1748073 9.754
487 1 -0.9591927 -10.0596927 9.754
488 1 -2.0743073 -7.0261927 9.754
489 1 -5.1078073 -10.0596927 12.1925
490 1 -3.9926927 -7.0261927 12.1925
491 1 -0.9591927 -8.1413073 12.1925
492 1 -2.0743073 -11.1748073 12.1925
493 2 -6.067 -12.134 15.85025
494 2 -6.067 -12.134 18.28875
495 2 -3.0335 -9.1005 18.28875
496 2 -3.0335 -9.1005 15.85025
497 1 -5.1078073 -8.1413073 14.631
498 1 -3.9926927 -11.1748073 14.631
499 1 -0.9591927 -10.0596927 14.631
500 1 -2.0743073 -7.0261927 14.631
501 1 -5.1078073 -10.0596927 17.0695
502 1 -3.9926927 -7.0261927 17.0695
503 1 -0.9591927 -8.1413073 17.0695
504 1 -2.0743073 -11.1748073 17.0695
505 2 -6.067 -6.067 -8.53475
506 2 -6.067 -6.067 -6.09625
507 2 -3.0335 -3.0335 -6.09625
508 2 -3.0335 -3.0335 -8.53475
509 1 -5.1078073 -2.0743073 -9.754
510 1 -3.9926927 -5.1078073 -9.754
511 1 -0.9591927 -3.9926927 -9.754
512 1 -2.0743073 -0.9591927 -9.754
513 1 -5.1078073 -3.9926927 -7.3155
514 1 -3.9926927 -0.9591927 -7.3155
515 1 -0.9591927 -2.0743073 -7.3155
516 1 -2.0743073 -5.1078073 -7.3155
517 2 -6.067 -6.067 -3.65775
518 2 -6.067 -6.067 -1.21925
519 2 -3.0335 -3.0335 -1.21925
520 2 -3.0335 -3.0335 -3.65775
521 1 -5.1078073 -2.0743073 -4.877
522 1 -3.9926927 -5.1078073 -4.877
523 1 -0.9591927 -3.9926927 -4.877
524 1 -2.0743073 -0.9591927 -4.877
525 1 -5.1078073 -3.9926927 -2.4385
526 1 -3.9926927 -0.9591927 -2.4385
527 1 -0.9591927 -2.0743073 -2.4385
528 1 -2.0743073 -5.1078073 -2.4385
529 2 -6.067 -6.067 1.21925
530 2 -6.067 -6.067 3.65775
531 2 -3.0335 -3.0335 3.65775
532 2 -3.0335 -3.0335 1.21925
533 1 -5.1078073 -2.0743073 0.0
534 1 -3.9926927 -5.1078073 0.0
535 1 -0.9591927 -3.9926927 0.0
536 1 -2.0743073 -0.9591927 0.0
537 1 -5.1078073 -3.9926927 2.4385
538 1 -3.9926927 -0.9591927 2.4385
539 1 -0.9591927 -2.0743073 2.4385
540 1 -2.0743073 -5.1078073 2.4385
541 2 -6.067 -6.067 6.09625
542 2 -6.067 -6.067 8.53475
543 2 -3.0335 -3.0335 8.53475
544 2 -3.0335 -3.0335 6.09625
545 1 -5.1078073 -2.0743073 4.877
546 1 -3.9926927 -5.1078073 4.877
547 1 -0.9591927 -3.9926927 4.877
548 1 -2.0743073 -0.9591927 4.877
549 1 -5.1078073 -3.9926927 7.3155
550 1 -3.9926927 -0.9591927 7.3155
551 1 -0.9591927 -2.0743073 7.3155
552 1 -2.0743073 -5.1078073 7.3155
553 2 -6.067 -6.067 10.97325
554 2 -6.067 -6.067 13.41175
555 2 -3.0335 -3.0335 13.41175
556 2 -3.0335 -3.0335 10.97325
557 1 -5.1078073 -2.0743073 9.754
558 1 -3.9926927 -5.1078073 9.754
559 1 -0.9591927 -3.9926927 9.754
560 1 -2.0743073 -0.9591927 9.754
561 1 -5.1078073 -3.9926927 12.1925
562 1 -3.9926927 -0.9591927 12.1925
563 1 -0.9591927 -2.0743073 12.1925
564 1 -2.0743073 -5.1078073 12.1925
565 2 -6.067 -6.067 15.85025
566 2 -6.067 -6.067 18.28875
567 2 -3.0335 -3.0335 18.28875
568 2 -3.0335 -3.0335 15.85025
569 1 -5.1078073 -2.0743073 14.631
570 1 -3.9926927 -5.1078073 14.631
571 1 -0.9591927 -3.9926927 14.631
572 1 -2.0743073 -0.9591927 14.631
573 1 -5.1078073 -3.9926927 17.0695
574 1 -3.9926927 -0.9591927 17.0695
575 1 -0.9591927 -2.0743073 17.0695
576 1 -2.0743073 -5.1078073 17.0695
577 2 -6.067 0.0 -8.53475
578 2 -6.067 0.0 -6.09625
579 2 -3.0335 3.0335 -6.09625
580 2 -3.0335 3.0335 -8.53475
581 1 -5.1078073 3.9926927 -9.754
582 1 -3.9926927 0.9591927 -9.754
583 1 -0.9591927 2.0743073 -9.754
584 1 -2.0743073 5.1078073 -9.754
585 1 -5.1078073 2.0743073 -7.3155
586 1 -3.9926927 5.1078073 -7.3155
587 1 -0.9591927 3.9926927 -7.3155
588 1 -2.0743073 0.9591927 -7.3155
589 2 -6.067 0.0 -3.65775
590 2 -6.067 0.0 -1.21925
591 2 -3.0335 3.0335 -1.21925
592 2 -3.0335 3.0335 -3.65775
593 1 -5.1078073 3.9926927 -4.877
594 1 -3.9926927 0.9591927 -4.877
595 1 -0.9591927 2.0743073 -4.877
596 1 -2.0743073 5.1078073 -4.877
597 1 -5.1078073 2.0743073 -2.4385
598 1 -3.9926927 5.1078073 -2.4385
599 1 -0.9591927 3.9926927 -2.4385
600 1 -2.0743073 0.9591927 -2.4385
601 2 -6.067 0.0 1.21925
602 2 -6.067 0.0 3.65775
603 2 -3.0335 3.0335 3.65775
604 2 -3.0335 3.0335 1.21925
605 1 -5.1078073 3.9926927 0.0
606 1 -3.9926927 0.9591927 0.0
607 1 -0.9591927 2.0743073 0.0
608 1 -2.0743073 5.1078073 0.0
609 1 -5.1078073 2.0743073 2.4385
610 1 -3.9926927 5.1078073 2.4385
611 1 -0.9591927 3.9926927 2.4385
612 1 -2.0743073 0.9591927 2.4385
613 2 -6.067 0.0 6.09625
614 2 -6.067 0.0 8.53475
615 2 -3.0335 3.0335 8.53475
616 2 -3.0335 3.0335 6.09625
617 1 -5.1078073 3.9926927 4.877
618 1 -3.9926927 0.9591927 4.877
619 1 -0.9591927 2.0743073 4.877
620 1 -2.0743073 5.1078073 4.877
621 1 -5.1078073 2.0743073 7.3155
622 1 -3.9926927 5.1078073 7.3155
623 1 -0.9591927 3.9926927 7.3155
624 1 -2.0743073 0.9591927 7.3155
625 2 -6.067 0.0 10.97325
626 2 -6.067 0.0 13.41175
627 2 -3.0335 3.0335 13.41175
628 2 -3.0335 3.0335 10.97325
629 1 -5.1078073 3.9926927 9.754
630 1 -3.9926927 0.9591927 9.754
631 1 -0.9591927 2.0743073 9.754
632 1 -2.0743073 5.1078073 9.754
633 1 -5.1078073 2.0743073 12.1925
634 1 -3.9926927 5.1078073 12.1925
635 1 -0.9591927 3.9926927 12.1925
636 1 -2.0743073 0.9591927 12.1925
637 2 -6.067 0.0 15.85025
638 2 -6.067 0.0 18.28875
639 2 -3.0335 3.0335 18.28875
640 2 -3.0335 3.0335 15.85025
641 1 -5.1078073 3.9926927 14.631
642 1 -3.9926927 0.9591927 14.631
643 1 -0.9591927 2.0743073 14.631
644 1 -2.0743073 5.1078073 14.631
645 1 -5.1078073 2.0743073 17.0695
646 1 -3.9926927 5.1078073 17.0695
647 1 -0.9591927 3.9926927 17.0695
648 1 -2.0743073 0.9591927 17.0695
649 2 -6.067 6.067 -8.53475
650 2 -6.067 6.067 -6.09625
651 2 -3.0335 9.1005 -6.09625
652 2 -3.0335 9.1005 -8.53475
653 1 -5.1078073 10.0596927 -9.754
654 1 -3.9926927 7.0261927 -9.754
655 1 -0.9591927 8.1413073 -9.754
656 1 -2.0743073 11.1748073 -9.754
657 1 -5.1078073 8.1413073 -7.3155
658 1 -3.9926927 11.1748073 -7.3155
659 1 -0.9591927 10.0596927 -7.3155
660 1 -2.0743073 7.0261927 -7.3155
661 2 -6.067 6.067 -3.65775
662 2 -6.067 6.067 -1.21925
663 2 -3.0335 9.1005 -1.21925
664 2 -3.0335 9.1005 -3.65775
665 1 -5.1078073 10.0596927 -4.877
666 1 -3.9926927 7.0261927 -4.877
667 1 -0.9591927 8.1413073 -4.877
668 1 -2.0743073 11.1748073 -4.877
669 1 -5.1078073 8.1413073 -2.4385
670 1 -3.9926927 11.1748073 -2.4385
671 1 -0.9591927 10.0596927 -2.4385
672 1 -2.0743073 7.0261927 -2.4385
673 2 -6.067 6.067 1.21925
674 2 -6.067 6.067 3.65775
675 2 -3.0335 9.1005 3.65775
676 2 -3.0335 9.1005 1.21925
677 1 -5.1078073 10.0596927 0.0
678 1 -3.9926927 7.0261927 0.0
679 1 -0.9591927 8.1413073 0.0
680 1 -2.0743073 11.1748073 0.0
681 1 -5.1078073 8.1413073 2.4385
682 1 -3.9926927 11.1748073 2.4385
683 1 -0.9591927 10.0596927 2.4385
684 1 -2.0743073 7.0261927 2.4385
685 2 -6.067 6.067 6.09625
686 2 -6.067 6.067 8.53475
687 2 -3.0335 9.1005 8.53475
688 2 -3.0335 9.1005 6.09625
689 1 -5.1078073 10.0596927 4.877
690 1 -3.9926927 7.0261927 4.877
691 1 -0.9591927 8.1413073 4.877
692 1 -2.0743073 11.1748073 4.877
693 1 -5.1078073 8.1413073 7.3155
694 1 -3.9926927 11.1748073 7.3155
695 1 -0.9591927 10.0596927 7.3155
696 1 -2.0743073 7.0261927 7.3155
697 2 -6.067 6.067 10.97325
698 2 -6.067 6.067 13.41175
699 2 -3.0335 9.1005 13.41175
700 2 -3.0335 9.1005 10.97325
701 1 -5.1078073 10.0596927 9.754
702 1 -3.9926927 7.0261927 9.754
703 1 -0.9591927 8.1413073 9.754
704 1 -2.0743073 11.1748073 9.754
705 1 -5.1078073 8.1413073 12.1925
706 1 -3.9926927 11.1748073 12.1925
707 1 -0.9591927 10.0596927 12.1925
708 1 -2.0743073 7.0261927 12.1925
709 2 -6.067 6.067 15.85025
710 2 -6.067 6.067 18.28875
711 2 -3.0335 9.1005 18.28875
712 2 -3.0335 9.1005 15.85025
713 1 -5.1078073 10.0596927 14.631
714 1 -3.9926927 7.0261927 14.631
715 1 -0.9591927 8.1413073 14.631
716 1 -2.0743073 11.1748073 14.631
717 1 -5.1078073 8.1413073 17.0695
718 1 -3.9926927 11.1748073 17.0695
719 1 -0.9591927 10.0596927 17.0695
720 1 -2.0743073 7.0261927 17.0695
721 2 -6.067 12.134 -8.53475
722 2 -6.067 12.134 -6.09625
723 2 -3.0335 15.1675 -6.09625
724 2 -3.0335 15.1675 -8.53475
725 1 -5.1078073 16.1266927 -9.754
726 1 -3.9926927 13.0931927 -9.754
727 1 -0.9591927 14.2083073 -9.754
728 1 -2.0743073 17.2418073 -9.754
729 1 -5.1078073 14.2083073 -7.3155
730 1 -3.9926927 17.2418073 -7.3155
731 1 -0.9591927 16.1266927 -7.3155
732 1 -2.0743073 13.0931927 -7.3155
733 2 -6.067 12.134 -3.65775
734 2 -6.067 12.134 -1.21925
735 2 -3.0335 15.1675 -1.21925
736 2 -3.0335 15.1675 -3.65775
737 1 -5.1078073 16.1266927 -4.877
738 1 -3.9926927 13.0931927 -4.877
739 1 -0.9591927 14.2083073 -4.877
740 1 -2.0743073 17.2418073 -4.877
741 1 -5.1078073 14.2083073 -2.4385
742 1 -3.9926927 17.2418073 -2.4385
743 1 -0.9591927 16.1266927 -2.4385
744 1 -2.0743073 13.0931927 -2.4385
745 2 -6.067 12.134 1.21925
746 2 -6.067 12.134 3.65775
747 2 -3.0335 15.1675 3.65775
748 2 -3.0335 15.1675 1.21925
749 1 -5.1078073 16.1266927 0.0
750 1 -3.9926927 13.0931927 0.0
751 1 -0.9591927 14.2083073 0.0
752 1 -2.0743073 17.2418073 0.0
753 1 -5.1078073 14.2083073 2.4385
754 1 -3.9926927 17.2418073 2.4385
755 1 -0.9591927 16.1266927 2.4385
756 1 -2.0743073 13.0931927 2.4385
757 2 -6.067 12.134 6.09625
758 2 -6.067 12.134 8.53475
759 2 -3.0335 15.1675 8.53475
760 2 -3.0335 15.1675 6.09625
761 1 -5.1078073 16.1266927 4.877
762 1 -3.9926927 13.0931927 4.877
763 1 -0.9591927 14.2083073 4.877
764 1 -2.0743073 17.2418073 4.877
765 1 -5.1078073 14.2083073 7.3155
766 1 -3.9926927 17.2418073 7.3155
767 1 -0.9591927 16.1266927 7.3155
768 1 -2.0743073 13.0931927 7.3155
769 2 -6.067 12.134 10.97325
770 2 -6.067 12.134 13.41175
771 2 -3.0335 15.1675 13.41175
772 2 -3.0335 15.1675 10.97325
773 1 -5.1078073 16.1266927 9.754
774 1 -3.9926927 13.0931927 9.754
775 1 -0.9591927 14.2083073 9.754
776 1 -2.0743073 17.2418073 9.754
777 1 -5.1078073 14.2083073 12.1925
778 1 -3.9926927 17.2418073 12.1925
779 1 -0.9591927 16.1266927 12.1925
780 1 -2.0743073 13.0931927 12.1925
781 2 -6.067 12.134 15.85025
782 2 -6.067 12.134 18.28875
783 2 -3.0335 15.1675 18.28875
784 2 -3.0335 15.1675 15.85025
785 1 -5.1078073 16.1266927 14.631
786 1 -3.9926927 13.0931927 14.631
787 1 -0.9591927 14.2083073 14.631
788 1 -2.0743073 17.2418073 14.631
789 1 -5.1078073 14.2083073 17.0695
790 1 -3.9926927 17.2418073 17.0695
791 1 -0.9591927 16.1266927 17.0695
792 1 -2.0743073 13.0931927 17.0695
793 2 -6.067 18.201 -8.53475
794 2 -6.067 18.201 -6.09625
795 2 -3.0335 21.2345 -6.09625
796 2 -3.0335 21.2345 -8.53475
797 1 -5.1078073 22.1936927 -9.754
798 1 -3.9926927 19.1601927 -9.754
799 1 -0.9591927 20.2753073 -9.754
800 1 -2.0743073 23.3088073 -9.754
801 1 -5.1078073 20.2753073 -7.3155
802 1 -3.9926927 23.3088073 -7.3155
803 1 -0.9591927 22.1936927 -7.3155
804 1 -2.0743073 19.1601927 -7.3155
805 2 -6.067 18.201 -3.65775
806 2 -6.067 18.201 -1.21925
807 2 -3.0335 21.2345 -1.21925
808 2 -3.0335 21.2345 -3.65775
809 1 -5.1078073 22.1936927 -4.877
810 1 -3.9926927 19.1601927 -4.877
811 1 -0.9591927 20.2753073 -4.877
812 1 -2.0743073 23.3088073 -4.877
813 1 -5.1078073 20.2753073 -2.4385
814 1 -3.9926927 23.3088073 -2.4385
815 1 -0.9591927 22.1936927 -2.4385
816 1 -2.0743073 19.1601927 -2.4385
817 2 -6.067 18.201 1.21925
818 2 -6.067 18.201 3.65775
819 2 -3.0335 21.2345 3.65775
820 2 -3.0335 21.2345 1.21925
821 1 -5.1078073 22.1936927 0.0
822 1 -3.9926927 19.1601927 0.0
823 1 -0.9591927 20.2753073 0.0
824 1 -2.0743073 23.3088073 0.0
825 1 -5.1078073 20.2753073 2.4385
826 1 -3.9926927 23.3088073 2.4385
827 1 -0.9591927 22.1936927 2.4385
828 1 -2.0743073 19.1601927 2.4385
829 2 -6.067 18.201 6.09625
830 2 -6.067 18.201 8.53475
831 2 -3.0335 21.2345 8.53475
832 2 -3.0335 21.2345 6.09625
833 1 -5.1078073 22.1936927 4.877
834 1 -3.9926927 19.1601927 4.877
835 1 -0.9591927 20.2753073 4.877
836 1 -2.0743073 23.3088073 4.877
837 1 -5.1078073 20.2753073 7.3155
838 1 -3.9926927 23.3088073 7.3155
839 1 -0.9591927 22.1936927 7.3155
840 1 -2.0743073 19.1601927 7.3155
841 2 -6.067 18.201 10.97325
842 2 -6.067 18.201 13.41175
843 2 -3.0335 21.2345 13.41175
844 2 -3.0335 21.2345 10.97325
845 1 -5.1078073 22.1936927 9.754
846 1 -3.9926927 19.1601927 9.754
847 1 -0.9591927 20.2753073 9.754
848 1 -2.0743073 23.3088073 9.754
849 1 -5.1078073 20.2753073 12.1925
850 1 -3.9926927 23.3088073 12.1925
851 1 -0.9591927 22.1936927 12.1925
852 1 -2.0743073 19.1601927 12.1925
853 2 -6.067 18.201 15.85025
854 2 -6.067 18.201 18.28875
855 2 -3.0335 21.2345 18.28875
856 2 -3.0335 21.2345 15.85025
857 1 -5.1078073 22.1936927 14.631
858 1 -3.9926927 19.1601927 14.631
859 1 -0.9591927 20.2753073 14.631
860 1 -2.0743073 23.3088073 14.631
861 1 -5.1078073 20.2753073 17.0695
862 1 -3.9926927 23.3088073 17.0695
863 1 -0.9591927 22.1936927 17.0695
864 1 -2.0743073 19.1601927 17.0695
865 2 0.0 -12.134 -8.53475
866 2 0.0 -12.134 -6.09625
867 2 3.0335 -9.1005 -6.09625
868 2 3.0335 -9.1005 -8.53475
869 1 0.9591927 -8.1413073 -9.754
870 1 2.0743073 -11.1748073 -9.754
871 1 5.1078073 -10.0596927 -9.754
872 1 3.9926927 -7.0261927 -9.754
873 1 0.9591927 -10.0596927 -7.3155
874 1 2.0743073 -7.0261927 -7.3155
875 1 5.1078073 -8.1413073 -7.3155
876 1 3.9926927 -11.1748073 -7.3155
877 2 0.0 -12.134 -3.65775
878 2 0.0 -12.134 -1.21925
879 2 3.0335 -9.1005 -1.21925
880 2 3.0335 -9.1005 -3.65775
881 1 0.9591927 -8.1413073 -4.877
882 1 2.0743073 -11.1748073 -4.877
883 1 5.1078073 -10.0596927 -4.877
884 1 3.9926927 -7.0261927 -4.877
885 1 0.9591927 -10.0596927 -2.4385
886 1 2.0743073 -7.0261927 -2.4385
887 1 5.1078073 -8.1413073 -2.4385
888 1 3.9926927 -11.1748073 -2.4385
889 2 0.0 -12.134 1.21925
890 2 0.0 -12.134 3.65775
891 2 3.0335 -9.1005 3.65775
892 2 3.0335 -9.1005 1.21925
893 1 0.9591927 -8.1413073 0.0
894 1 2.0743073 -11.1748073 0.0
895 1 5.1078073 -10.0596927 0.0
896 1 3.9926927 -7.0261927 0.0
897 1 0.9591927 -10.0596927 2.4385
898 1 2.0743073 -7.0261927 2.4385
899 1 5.1078073 -8.1413073 2.4385
900 1 3.9926927 -11.1748073 2.4385
901 2 0.0 -12.134 6.09625
902 2 0.0 -12.134 8.53475
903 2 3.0335 -9.1005 8.53475