# LAMMPS data file written by OVITO Basic 3.10.6

1500 atoms
2 atom types

-12.134 18.201 xlo xhi
-12.134 18.201 ylo yhi
-9.754 14.631 zlo zhi

Atom Type Labels

1 Al
2 Cu

Masses

1 26.981538  # Al
2 63.546  # Cu

Atoms  # atomic

1 2 -12.134 -12.134 -8.53475
2 2 -12.134 -12.134 -6.09625
3 2 -9.1005 -9.1005 -6.09625
4 2 -9.1005 -9.1005 -8.53475
5 1 -11.1748073 -8.1413073 -9.754
6 1 -10.0596927 -11.1748073 -9.754
7 1 -7.0261927 -10.0596927 -9.754
8 1 -8.1413073 -7.0261927 -9.754
9 1 -11.1748073 -10.0596927 -7.3155
10 1 -10.0596927 -7.0261927 -7.3155
11 1 -7.0261927 -8.1413073 -7.3155
12 1 -8.1413073 -11.1748073 -7.3155
13 2 -12.134 -12.134 -3.65775
14 2 -12.134 -12.134 -1.21925
15 2 -9.1005 -9.1005 -1.21925
16 2 -9.1005 -9.1005 -3.65775
17 1 -11.1748073 -8.1413073 -4.877
18 1 -10.0596927 -11.1748073 -4.877
19 1 -7.0261927 -10.0596927 -4.877
20 1 -8.1413073 -7.0261927 -4.877
21 1 -11.1748073 -10.0596927 -2.4385
22 1 -10.0596927 -7.0261927 -2.4385
23 1 -7.0261927 -8.1413073 -2.4385
24 1 -8.1413073 -11.1748073 -2.4385
25 2 -12.134 -12.134 1.21925
26 2 -12.134 -12.134 3.65775
27 2 -9.1005 -9.1005 3.65775
28 2 -9.1005 -9.1005 1.21925
29 1 -11.1748073 -8.1413073 0.0
30 1 -10.0596927 -11.1748073 0.0
31 1 -7.0261927 -10.0596927 0.0
32 1 -8.1413073 -7.0261927 0.0
33 1 -11.1748073 -10.0596927 2.4385
34 1 -10.0596927 -7.0261927 2.4385
35 1 -7.0261927 -8.1413073 2.4385
36 1 -8.1413073 -11.1748073 2.4385
37 2 -12.134 -12.134 6.09625
38 2 -12.134 -12.134 8.53475
39 2 -9.1005 -9.1005 8.53475
40 2 -9.1005 -9.1005 6.09625
41 1 -11.1748073 -8.1413073 4.877
42 1 -10.0596927 -11.1748073 4.877
43 1 -7.0261927 -10.0596927 4.877
44 1 -8.1413073 -7.0261927 4.877
45 1 -11.1748073 -10.0596927 7.3155
46 1 -10.0596927 -7.0261927 7.3155
47 1 -7.0261927 -8.1413073 7.3155
48 1 -8.1413073 -11.1748073 7.3155
49 2 -12.134 -12.134 10.97325
50 2 -12.134 -12.134 13.41175
51 2 -9.1005 -9.1005 13.41175
52 2 -9.1005 -9.1005 10.97325
53 1 -11.1748073 -8.1413073 9.754
54 1 -10.0596927 -11.1748073 9.754
55 1 -7.0261927 -10.0596927 9.754
56 1 -8.1413073 -7.0261927 9.754
57 1 -11.1748073 -10.0596927 12.1925
58 1 -10.0596927 -7.0261927 12.1925
59 1 -7.0261927 -8.1413073 12.1925
60 1 -8.1413073 -11.1748073 12.1925
61 2 -12.134 -6.067 -8.53475
62 2 -12.134 -6.067 -6.09625
63 2 -9.1005 -3.0335 -6.09625
64 2 -9.1005 -3.0335 -8.53475
65 1 -11.1748073 -2.0743073 -9.754
66 1 -10.0596927 -5.1078073 -9.754
67 1 -7.0261927 -3.9926927 -9.754
68 1 -8.1413073 -0.9591927 -9.754
69 1 -11.1748073 -3.9926927 -7.3155
70 1 -10.0596927 -0.9591927 -7.3155
71 1 -7.0261927 -2.0743073 -7.3155
72 1 -8.1413073 -5.1078073 -7.3155
73 2 -12.134 -6.067 -3.65775
74 2 -12.134 -6.067 -1.21925
75 2 -9.1005 -3.0335 -1.21925
76 2 -9.1005 -3.0335 -3.65775
77 1 -11.1748073 -2.0743073 -4.877
78 1 -10.0596927 -5.1078073 -4.877
79 1 -7.0261927 -3.9926927 -4.877
80 1 -8.1413073 -0.9591927 -4.877
81 1 -11.1748073 -3.9926927 -2.4385
82 1 -10.0596927 -0.9591927 -2.4385
83 1 -7.0261927 -2.0743073 -2.4385
84 1 -8.1413073 -5.1078073 -2.4385
85 2 -12.134 -6.067 1.21925
86 2 -12.134 -6.067 3.65775
87 2 -9.1005 -3.0335 3.65775
88 2 -9.1005 -3.0335 1.21925
89 1 -11.1748073 -2.0743073 0.0
90 1 -10.0596927 -5.1078073 0.0
91 1 -7.0261927 -3.9926927 0.0
92 1 -8.1413073 -0.9591927 0.0
93 1 -11.1748073 -3.9926927 2.4385
94 1 -10.0596927 -0.9591927 2.4385
95 1 -7.0261927 -2.0743073 2.4385
96 1 -8.1413073 -5.1078073 2.4385
97 2 -12.134 -6.067 6.09625
98 2 -12.134 -6.067 8.53475
99 2 -9.1005 -3.0335 8.53475
100 2 -9.1005 -3.0335 6.09625
101 1 -11.1748073 -2.0743073 4.877
102 1 -10.0596927 -5.1078073 4.877
103 1 -7.0261927 -3.9926927 4.877
104 1 -8.1413073 -0.9591927 4.877
105 1 -11.1748073 -3.9926927 7.3155
106 1 -10.0596927 -0.9591927 7.3155
107 1 -7.0261927 -2.0743073 7.3155
108 1 -8.1413073 -5.1078073 7.3155
109 2 -12.134 -6.067 10.97325
110 2 -12.134 -6.067 13.41175
111 2 -9.1005 -3.0335 13.41175
112 2 -9.1005 -3.0335 10.97325
113 1 -11.1748073 -2.0743073 9.754
114 1 -10.0596927 -5.1078073 9.754
115 1 -7.0261927 -3.9926927 9.754
116 1 -8.1413073 -0.9591927 9.754
117 1 -11.1748073 -3.9926927 12.1925
118 1 -10.0596927 -0.9591927 12.1925
119 1 -7.0261927 -2.0743073 12.1925
120 1 -8.1413073 -5.1078073 12.1925
121 2 -12.134 0.0 -8.53475
122 2 -12.134 0.0 -6.09625
123 2 -9.1005 3.0335 -6.09625
124 2 -9.1005 3.0335 -8.53475
125 1 -11.1748073 3.9926927 -9.754
126 1 -10.0596927 0.9591927 -9.754
127 1 -7.0261927 2.0743073 -9.754
128 1 -8.1413073 5.1078073 -9.754
129 1 -11.1748073 2.0743073 -7.3155
130 1 -10.0596927 5.1078073 -7.3155
131 1 -7.0261927 3.9926927 -7.3155
132 1 -8.1413073 0.9591927 -7.3155
133 2 -12.134 0.0 -3.65775
134 2 -12.134 0.0 -1.21925
135 2 -9.1005 3.0335 -1.21925
136 2 -9.1005 3.0335 -3.65775
137 1 -11.1748073 3.9926927 -4.877
138 1 -10.0596927 0.9591927 -4.877
139 1 -7.0261927 2.0743073 -4.877
140 1 -8.1413073 5.1078073 -4.877
141 1 -11.1748073 2.0743073 -2.4385
142 1 -10.0596927 5.1078073 -2.4385
143 1 -7.0261927 3.9926927 -2.4385
144 1 -8.1413073 0.9591927 -2.4385
145 2 -12.134 0.0 1.21925
146 2 -12.134 0.0 3.65775
147 2 -9.1005 3.0335 3.65775
148 2 -9.1005 3.0335 1.21925
149 1 -11.1748073 3.9926927 0.0
150 1 -10.0596927 0.9591927 0.0
151 1 -7.0261927 2.0743073 0.0
152 1 -8.1413073 5.1078073 0.0
153 1 -11.1748073 2.0743073 2.4385
154 1 -10.0596927 5.1078073 2.4385
155 1 -7.0261927 3.9926927 2.4385
156 1 -8.1413073 0.9591927 2.4385
157 2 -12.134 0.0 6.09625
158 2 -12.134 0.0 8.53475
159 2 -9.1005 3.0335 8.53475
160 2 -9.1005 3.0335 6.09625
161 1 -11.1748073 3.9926927 4.877
162 1 -10.0596927 0.9591927 4.877
163 1 -7.0261927 2.0743073 4.877
164 1 -8.1413073 5.1078073 4.877
165 1 -11.1748073 2.0743073 7.3155
166 1 -10.0596927 5.1078073 7.3155
167 1 -7.0261927 3.9926927 7.3155
168 1 -8.1413073 0.9591927 7.3155
169 2 -12.134 0.0 10.97325
170 2 -12.134 0.0 13.41175
171 2 -9.1005 3.0335 13.41175
172 2 -9.1005 3.0335 10.97325
173 1 -11.1748073 3.9926927 9.754
174 1 -10.0596927 0.9591927 9.754
175 1 -7.0261927 2.0743073 9.754
176 1 -8.1413073 5.1078073 9.754
177 1 -11.1748073 2.0743073 12.1925
178 1 -10.0596927 5.1078073 12.1925
179 1 -7.0261927 3.9926927 12.1925
180 1 -8.1413073 0.9591927 12.1925
181 2 -12.134 6.067 -8.53475
182 2 -12.134 6.067 -6.09625
183 2 -9.1005 9.1005 -6.09625
184 2 -9.1005 9.1005 -8.53475
185 1 -11.1748073 10.0596927 -9.754
186 1 -10.0596927 7.0261927 -9.754
187 1 -7.0261927 8.1413073 -9.754
188 1 -8.1413073 11.1748073 -9.754
189 1 -11.1748073 8.1413073 -7.3155
190 1 -10.0596927 11.1748073 -7.3155
191 1 -7.0261927 10.0596927 -7.3155
192 1 -8.1413073 7.0261927 -7.3155
193 2 -12.134 6.067 -3.65775
194 2 -12.134 6.067 -1.21925
195 2 -9.1005 9.1005 -1.21925
196 2 -9.1005 9.1005 -3.65775
197 1 -11.1748073 10.0596927 -4.877
198 1 -10.0596927 7.0261927 -4.877
199 1 -7.0261927 8.1413073 -4.877
200 1 -8.1413073 11.1748073 -4.877
201 1 -11.1748073 8.1413073 -2.4385
202 1 -10.0596927 11.1748073 -2.4385
203 1 -7.0261927 10.0596927 -2.4385
204 1 -8.1413073 7.0261927 -2.4385
205 2 -12.134 6.067 1.21925
206 2 -12.134 6.067 3.65775
207 2 -9.1005 9.1005 3.65775
208 2 -9.1005 9.1005 1.21925
209 1 -11.1748073 10.0596927 0.0
210 1 -10.0596927 7.0261927 0.0
211 1 -7.0261927 8.1413073 0.0
212 1 -8.1413073 11.1748073 0.0
213 1 -11.1748073 8.1413073 2.4385
214 1 -10.0596927 11.1748073 2.4385
215 1 -7.0261927 10.0596927 2.4385
216 1 -8.1413073 7.0261927 2.4385
217 2 -12.134 6.067 6.09625
218 2 -12.134 6.067 8.53475
219 2 -9.1005 9.1005 8.53475
220 2 -9.1005 9.1005 6.09625
221 1 -11.1748073 10.0596927 4.877
222 1 -10.0596927 7.0261927 4.877
223 1 -7.0261927 8.1413073 4.877
224 1 -8.1413073 11.1748073 4.877
225 1 -11.1748073 8.1413073 7.3155
226 1 -10.0596927 11.1748073 7.3155
227 1 -7.0261927 10.0596927 7.3155
228 1 -8.1413073 7.0261927 7.3155
229 2 -12.134 6.067 10.97325
230 2 -12.134 6.067 13.41175
231 2 -9.1005 9.1005 13.41175
232 2 -9.1005 9.1005 10.97325
233 1 -11.1748073 10.0596927 9.754
234 1 -10.0596927 7.0261927 9.754
235 1 -7.0261927 8.1413073 9.754
236 1 -8.1413073 11.1748073 9.754
237 1 -11.1748073 8.1413073 12.1925
238 1 -10.0596927 11.1748073 12.1925
239 1 -7.0261927 10.0596927 12.1925
240 1 -8.1413073 7.0261927 12.1925
241 2 -12.134 12.134 -8.53475
242 2 -12.134 12.134 -6.09625
243 2 -9.1005 15.1675 -6.09625
244 2 -9.1005 15.1675 -8.53475
245 1 -11.1748073 16.1266927 -9.754
246 1 -10.0596927 13.0931927 -9.754
247 1 -7.0261927 14.2083073 -9.754
248 1 -8.1413073 17.2418073 -9.754
249 1 -11.1748073 14.2083073 -7.3155
250 1 -10.0596927 17.2418073 -7.3155
251 1 -7.0261927 16.1266927 -7.3155
252 1 -8.1413073 13.0931927 -7.3155
253 2 -12.134 12.134 -3.65775
254 2 -12.134 12.134 -1.21925
255 2 -9.1005 15.1675 -1.21925
256 2 -9.1005 15.1675 -3.65775
257 1 -11.1748073 16.1266927 -4.877
258 1 -10.0596927 13.0931927 -4.877
259 1 -7.0261927 14.2083073 -4.877
260 1 -8.1413073 17.2418073 -4.877
261 1 -11.1748073 14.2083073 -2.4385
262 1 -10.0596927 17.2418073 -2.4385
263 1 -7.0261927 16.1266927 -2.4385
264 1 -8.1413073 13.0931927 -2.4385
265 2 -12.134 12.134 1.21925
266 2 -12.134 12.134 3.65775
267 2 -9.1005 15.1675 3.65775
268 2 -9.1005 15.1675 1.21925
269 1 -11.1748073 16.1266927 0.0
270 1 -10.0596927 13.0931927 0.0
271 1 -7.0261927 14.2083073 0.0
272 1 -8.1413073 17.2418073 0.0
273 1 -11.1748073 14.2083073 2.4385
274 1 -10.0596927 17.2418073 2.4385
275 1 -7.0261927 16.1266927 2.4385
276 1 -8.1413073 13.0931927 2.4385
277 2 -12.134 12.134 6.09625
278 2 -12.134 12.134 8.53475
279 2 -9.1005 15.1675 8.53475
280 2 -9.1005 15.1675 6.09625
281 1 -11.1748073 16.1266927 4.877
282 1 -10.0596927 13.0931927 4.877
283 1 -7.0261927 14.2083073 4.877
284 1 -8.1413073 17.2418073 4.877
285 1 -11.1748073 14.2083073 7.3155
286 1 -10.0596927 17.2418073 7.3155
287 1 -7.0261927 16.1266927 7.3155
288 1 -8.1413073 13.0931927 7.3155
289 2 -12.134 12.134 10.97325
290 2 -12.134 12.134 13.41175
291 2 -9.1005 15.1675 13.41175
292 2 -9.1005 15.1675 10.97325
293 1 -11.1748073 16.1266927 9.754
294 1 -10.0596927 13.0931927 9.754
295 1 -7.0261927 14.2083073 9.754
296 1 -8.1413073 17.2418073 9.754
297 1 -11.1748073 14.2083073 12.1925
298 1 -10.0596927 17.2418073 12.1925
299 1 -7.0261927 16.1266927 12.1925
300 1 -8.1413073 13.0931927 12.1925
301 2 -6.067 -12.134 -8.53475
302 2 -6.067 -12.134 -6.09625
303 2 -3.0335 -9.1005 -6.09625
304 2 -3.0335 -9.1005 -8.53475
305 1 -5.1078073 -8.1413073 -9.754
306 1 -3.9926927 -11.1748073 -9.754
307 1 -0.9591927 -10.0596927 -9.754
308 1 -2.0743073 -7.0261927 -9.754
309 1 -5.1078073 -10.0596927 -7.3155
310 1 -3.9926927 -7.0261927 -7.3155
311 1 -0.9591927 -8.1413073 -7.3155
312 1 -2.0743073 -11.1748073 -7.3155
313 2 -6.067 -12.134 -3.65775
314 2 -6.067 -12.134 -1.21925
315 2 -3.0335 -9.1005 -1.21925
316 2 -3.0335 -9.1005 -3.65775
317 1 -5.1078073 -8.1413073 -4.877
318 1 -3.9926927 -11.1748073 -4.877
319 1 -0.9591927 -10.0596927 -4.877
320 1 -2.0743073 -7.0261927 -4.877
321 1 -5.1078073 -10.0596927 -2.4385
322 1 -3.9926927 -7.0261927 -2.4385
323 1 -0.9591927 -8.1413073 -2.4385
324 1 -2.0743073 -11.1748073 -2.4385
325 2 -6.067 -12.134 1.21925
326 2 -6.067 -12.134 3.65775
327 2 -3.0335 -9.1005 3.65775
328 2 -3.0335 -9.1005 1.21925
329 1 -5.1078073 -8.1413073 0.0
330 1 -3.9926927 -11.1748073 0.0
331 1 -0.9591927 -10.0596927 0.0
332 1 -2.0743073 -7.0261927 0.0
333 1 -5.1078073 -10.0596927 2.4385
334 1 -3.9926927 -7.0261927 2.4385
335 1 -0.9591927 -8.1413073 2.4385
336 1 -2.0743073 -11.1748073 2.4385
337 2 -6.067 -12.134 6.09625
338 2 -6.067 -12.134 8.53475
339 2 -3.0335 -9.1005 8.53475
340 2 -3.0335 -9.1005 6.09625
341 1 -5.1078073 -8.1413073 4.877
342 1 -3.9926927 -11.1748073 4.877
343 1 -0.9591927 -10.0596927 4.877
344 1 -2.0743073 -7.0261927 4.877
345 1 -5.1078073 -10.0596927 7.3155
346 1 -3.9926927 -7.0261927 7.3155
347 1 -0.9591927 -8.1413073 7.3155
348 1 -2.0743073 -11.1748073 7.3155
349 2 -6.067 -12.134 10.97325
350 2 -6.067 -12.134 13.41175
351 2 -3.0335 -9.1005 13.41175
352 2 -3.0335 -9.1005 10.97325
353 1 -5.1078073 -8.1413073 9.754
354 1 -3.9926927 -11.1748073 9.754
355 1 -0.9591927 -10.0596927 9.754
356 1 -2.0743073 -7.0261927 9.754
357 1 -5.1078073 -10.0596927 12.1925
358 1 -3.9926927 -7.0261927 12.1925
359 1 -0.9591927 -8.1413073 12.1925
360 1 -2.0743073 -11.1748073 12.1925
361 2 -6.067 -6.067 -8.53475
362 2 -6.067 -6.067 -6.09625
363 2 -3.0335 -3.0335 -6.09625
364 2 -3.0335 -3.0335 -8.53475
365 1 -5.1078073 -2.0743073 -9.754
366 1 -3.9926927 -5.1078073 -9.754
367 1 -0.9591927 -3.9926927 -9.754
368 1 -2.0743073 -0.9591927 -9.754
369 1 -5.1078073 -3.9926927 -7.3155
370 1 -3.9926927 -0.9591927 -7.3155
371 1 -0.9591927 -2.0743073 -7.3155
372 1 -2.0743073 -5.1078073 -7.3155
373 2 -6.067 -6.067 -3.65775
374 2 -6.067 -6.067 -1.21925
375 2 -3.0335 -3.0335 -1.21925
376 2 -3.0335 -3.0335 -3.65775
377 1 -5.1078073 -2.0743073 -4.877
378 1 -3.9926927 -5.1078073 -4.877
379 1 -0.9591927 -3.9926927 -4.877
380 1 -2.0743073 -0.9591927 -4.877
381 1 -5.1078073 -3.9926927 -2.4385
382 1 -3.9926927 -0.9591927 -2.4385
383 1 -0.9591927 -2.0743073 -2.4385
384 1 -2.0743073 -5.1078073 -2.4385
385 2 -6.067 -6.067 1.21925
386 2 -6.067 -6.067 3.65775
387 2 -3.0335 -3.0335 3.65775
388 2 -3.0335 -3.0335 1.21925
389 1 -5.1078073 -2.0743073 0.0
390 1 -3.9926927 -5.1078073 0.0
391 1 -0.9591927 -3.9926927 0.0
392 1 -2.0743073 -0.9591927 0.0
393 1 -5.1078073 -3.9926927 2.4385
394 1 -3.9926927 -0.9591927 2.4385
395 1 -0.9591927 -2.0743073 2.4385
396 1 -2.0743073 -5.1078073 2.4385
397 2 -6.067 -6.067 6.09625
398 2 -6.067 -6.067 8.53475
399 2 -3.0335 -3.0335 8.53475
400 2 -3.0335 -3.0335 6.09625
401 1 -5.1078073 -2.0743073 4.877
402 1 -3.9926927 -5.1078073 4.877
403 1 -0.9591927 -3.9926927 4.877
404 1 -2.0743073 -0.9591927 4.877
405 1 -5.1078073 -3.9926927 7.3155
406 1 -3.9926927 -0.9591927 7.3155
407 1 -0.9591927 -2.0743073 7.3155
408 1 -2.0743073 -5.1078073 7.3155
409 2 -6.067 -6.067 10.97325
410 2 -6.067 -6.067 13.41175
411 2 -3.0335 -3.0335 13.41175
412 2 -3.0335 -3.0335 10.97325
413 1 -5.1078073 -2.0743073 9.754
414 1 -3.9926927 -5.1078073 9.754
415 1 -0.9591927 -3.9926927 9.754
416 1 -2.0743073 -0.9591927 9.754
417 1 -5.1078073 -3.9926927 12.1925
418 1 -3.9926927 -0.9591927 12.1925
419 1 -0.9591927 -2.0743073 12.1925
420 1 -2.0743073 -5.1078073 12.1925
421 2 -6.067 0.0 -8.53475
422 2 -6.067 0.0 -6.09625
423 2 -3.0335 3.0335 -6.09625
424 2 -3.0335 3.0335 -8.53475
425 1 -5.1078073 3.9926927 -9.754
426 1 -3.9926927 0.9591927 -9.754
427 1 -0.9591927 2.0743073 -9.754
428 1 -2.0743073 5.1078073 -9.754
429 1 -5.1078073 2.0743073 -7.3155
430 1 -3.9926927 5.1078073 -7.3155
431 1 -0.9591927 3.9926927 -7.3155
432 1 -2.0743073 0.9591927 -7.3155
433 2 -6.067 0.0 -3.65775
434 2 -6.067 0.0 -1.21925
435 2 -3.0335 3.0335 -1.21925
436 2 -3.0335 3.0335 -3.65775
437 1 -5.1078073 3.9926927 -4.877
438 1 -3.9926927 0.9591927 -4.877
439 1 -0.9591927 2.0743073 -4.877
440 1 -2.0743073 5.1078073 -4.877
441 1 -5.1078073 2.0743073 -2.4385
442 1 -3.9926927 5.1078073 -2.4385
443 1 -0.9591927 3.9926927 -2.4385
444 1 -2.0743073 0.9591927 -2.4385
445 2 -6.067 0.0 1.21925
446 2 -6.067 0.0 3.65775
447 2 -3.0335 3.0335 3.65775
448 2 -3.0335 3.0335 1.21925
449 1 -5.1078073 3.9926927 0.0
450 1 -3.9926927 0.9591927 0.0
451 1 -0.9591927 2.0743073 0.0
452 1 -2.0743073 5.1078073 0.0
453 1 -5.1078073 2.0743073 2.4385
454 1 -3.9926927 5.1078073 2.4385
455 1 -0.9591927 3.9926927 2.4385
456 1 -2.0743073 0.9591927 2.4385
457 2 -6.067 0.0 6.09625
458 2 -6.067 0.0 8.53475
459 2 -3.0335 3.0335 8.53475
460 2 -3.0335 3.0335 6.09625
461 1 -5.1078073 3.9926927 4.877
462 1 -3.9926927 0.9591927 4.877
463 1 -0.9591927 2.0743073 4.877
464 1 -2.0743073 5.1078073 4.877
465 1 -5.1078073 2.0743073 7.3155
466 1 -3.9926927 5.1078073 7.3155
467 1 -0.9591927 3.9926927 7.3155
468 1 -2.0743073 0.9591927 7.3155
469 2 -6.067 0.0 10.97325
470 2 -6.067 0.0 13.41175
471 2 -3.0335 3.0335 13.41175
472 2 -3.0335 3.0335 10.97325
473 1 -5.1078073 3.9926927 9.754
474 1 -3.9926927 0.9591927 9.754
475 1 -0.9591927 2.0743073 9.754
476 1 -2.0743073 5.1078073 9.754
477 1 -5.1078073 2.0743073 12.1925
478 1 -3.9926927 5.1078073 12.1925
479 1 -0.9591927 3.9926927 12.1925
480 1 -2.0743073 0.9591927 12.1925
481 2 -6.067 6.067 -8.53475
482 2 -6.067 6.067 -6.09625
483 2 -3.0335 9.1005 -6.09625
484 2 -3.0335 9.1005 -8.53475
485 1 -5.1078073 10.0596927 -9.754
486 1 -3.9926927 7.0261927 -9.754
487 1 -0.9591927 8.1413073 -9.754
488 1 -2.0743073 11.1748073 -9.754
489 1 -5.1078073 8.1413073 -7.3155
490 1 -3.9926927 11.1748073 -7.3155
491 1 -0.9591927 10.0596927 -7.3155
492 1 -2.0743073 7.0261927 -7.3155
493 2 -6.067 6.067 -3.65775
494 2 -6.067 6.067 -1.21925
495 2 -3.0335 9.1005 -1.21925
496 2 -3.0335 9.1005 -3.65775
497 1 -5.1078073 10.0596927 -4.877
498 1 -3.9926927 7.0261927 -4.877
499 1 -0.9591927 8.1413073 -4.877
500 1 -2.0743073 11.1748073 -4.877
501 1 -5.1078073 8.1413073 -2.4385
502 1 -3.9926927 11.1748073 -2.4385
503 1 -0.9591927 10.0596927 -2.4385
504 1 -2.0743073 7.0261927 -2.4385
505 2 -6.067 6.067 1.21925
506 2 -6.067 6.067 3.65775
507 2 -3.0335 9.1005 3.65775
508 2 -3.0335 9.1005 1.21925
509 1 -5.1078073 10.0596927 0.0
510 1 -3.9926927 7.0261927 0.0
511 1 -0.9591927 8.1413073 0.0
512 1 -2.0743073 11.1748073 0.0
513 1 -5.1078073 8.1413073 2.4385
514 1 -3.9926927 11.1748073 2.4385
515 1 -0.9591927 10.0596927 2.4385
516 1 -2.0743073 7.0261927 2.4385
517 2 -6.067 6.067 6.09625
518 2 -6.067 6.067 8.53475
519 2 -3.0335 9.1005 8.53475
520 2 -3.0335 9.1005 6.09625
521 1 -5.1078073 10.0596927 4.877
522 1 -3.9926927 7.0261927 4.877
523 1 -0.9591927 8.1413073 4.877
524 1 -2.0743073 11.1748073 4.877
525 1 -5.1078073 8.1413073 7.3155
526 1 -3.9926927 11.1748073 7.3155
527 1 -0.9591927 10.0596927 7.3155
528 1 -2.0743073 7.0261927 7.3155
529 2 -6.067 6.067 10.97325
530 2 -6.067 6.067 13.41175
531 2 -3.0335 9.1005 13.41175
532 2 -3.0335 9.1005 10.97325
533 1 -5.1078073 10.0596927 9.754
534 1 -3.9926927 7.0261927 9.754
535 1 -0.9591927 8.1413073 9.754
536 1 -2.0743073 11.1748073 9.754
537 1 -5.1078073 8.1413073 12.1925
538 1 -3.9926927 11.1748073 12.1925
539 1 -0.9591927 10.0596927 12.1925
540 1 -2.0743073 7.0261927 12.1925
541 2 -6.067 12.134 -8.53475
542 2 -6.067 12.134 -6.09625
543 2 -3.0335 15.1675 -6.09625
544 2 -3.0335 15.1675 -8.53475
545 1 -5.1078073 16.1266927 -9.754
546 1 -3.9926927 13.0931927 -9.754
547 1 -0.9591927 14.2083073 -9.754
548 1 -2.0743073 17.2418073 -9.754
549 1 -5.1078073 14.2083073 -7.3155
550 1 -3.9926927 17.2418073 -7.3155
551 1 -0.9591927 16.1266927 -7.3155
552 1 -2.0743073 13.0931927 -7.3155
553 2 -6.067 12.134 -3.65775
554 2 -6.067 12.134 -1.21925
555 2 -3.0335 15.1675 -1.21925
556 2 -3.0335 15.1675 -3.65775
557 1 -5.1078073 16.1266927 -4.877
558 1 -3.9926927 13.0931927 -4.877
559 1 -0.9591927 14.2083073 -4.877
560 1 -2.0743073 17.2418073 -4.877
561 1 -5.1078073 14.2083073 -2.4385
562 1 -3.9926927 17.2418073 -2.4385
563 1 -0.9591927 16.1266927 -2.4385
564 1 -2.0743073 13.0931927 -2.4385
565 2 -6.067 12.134 1.21925
566 2 -6.067 12.134 3.65775
567 2 -3.0335 15.1675 3.65775
568 2 -3.0335 15.1675 1.21925
569 1 -5.1078073 16.1266927 0.0
570 1 -3.9926927 13.0931927 0.0
571 1 -0.9591927 14.2083073 0.0
572 1 -2.0743073 17.2418073 0.0
573 1 -5.1078073 14.2083073 2.4385
574 1 -3.9926927 17.2418073 2.4385
575 1 -0.9591927 16.1266927 2.4385
576 1 -2.0743073 13.0931927 2.4385
577 2 -6.067 12.134 6.09625
578 2 -6.067 12.134 8.53475
579 2 -3.0335 15.1675 8.53475
580 2 -3.0335 15.1675 6.09625
581 1 -5.1078073 16.1266927 4.877
582 1 -3.9926927 13.0931927 4.877
583 1 -0.9591927 14.2083073 4.877
584 1 -2.0743073 17.2418073 4.877
585 1 -5.1078073 14.2083073 7.3155
586 1 -3.9926927 17.2418073 7.3155
587 1 -0.9591927 16.1266927 7.3155
588 1 -2.0743073 13.0931927 7.3155
589 2 -6.067 12.134 10.97325
590 2 -6.067 12.134 13.41175
591 2 -3.0335 15.1675 13.41175
592 2 -3.0335 15.1675 10.97325
593 1 -5.1078073 16.1266927 9.754
594 1 -3.9926927 13.0931927 9.754
595 1 -0.9591927 14.2083073 9.754
596 1 -2.0743073 17.2418073 9.754
597 1 -5.1078073 14.2083073 12.1925
598 1 -3.9926927 17.2418073 12.1925
599 1 -0.9591927 16.1266927 12.1925
600 1 -2.0743073 13.0931927 12.1925
601 2 0.0 -12.134 -8.53475
602 2 0.0 -12.134 -6.09625
603 2 3.0335 -9.1005 -6.09625
604 2 3.0335 -9.1005 -8.53475
605 1 0.9591927 -8.1413073 -9.754
606 1 2.0743073 -11.1748073 -9.754
607 1 5.1078073 -10.0596927 -9.754
608 1 3.9926927 -7.0261927 -9.754
609 1 0.9591927 -10.0596927 -7.3155
610 1 2.0743073 -7.0261927 -7.3155
611 1 5.1078073 -8.1413073 -7.3155
612 1 3.9926927 -11.1748073 -7.3155
613 2 0.0 -12.134 -3.65775
614 2 0.0 -12.134 -1.21925
615 2 3.0335 -9.1005 -1.21925
616 2 3.0335 -9.1005 -3.65775
617 1 0.9591927 -8.1413073 -4.877
618 1 2.0743073 -11.1748073 -4.877
619 1 5.1078073 -10.0596927 -4.877
620 1 3.9926927 -7.0261927 -4.877
621 1 0.9591927 -10.0596927 -2.4385
622 1 2.0743073 -7.0261927 -2.4385
623 1 5.1078073 -8.1413073 -2.4385
624 1 3.9926927 -11.1748073 -2.4385
625 2 0.0 -12.134 1.21925
626 2 0.0 -12.134 3.65775
627 2 3.0335 -9.1005 3.65775
628 2 3.0335 -9.1005 1.21925
629 1 0.9591927 -8.1413073 0.0
630 1 2.0743073 -11.1748073 0.0
631 1 5.1078073 -10.0596927 0.0
632 1 3.9926927 -7.0261927 0.0
633 1 0.9591927 -10.0596927 2.4385
634 1 2.0743073 -7.0261927 2.4385
635 1 5.1078073 -8.1413073 2.4385
636 1 3.9926927 -11.1748073 2.4385
637 2 0.0 -12.134 6.09625
638 2 0.0 -12.134 8.53475
639 2 3.0335 -9.1005 8.53475
640 2 3.0335 -9.1005 6.09625
641 1 0.9591927 -8.1413073 4.877
642 1 2.0743073 -11.1748073 4.877
643 1 5.1078073 -10.0596927 4.877
644 1 3.9926927 -7.0261927 4.877
645 1 0.9591927 -10.0596927 7.3155
646 1 2.0743073 -7.0261927 7.3155
647 1 5.1078073 -8.1413073 7.3155
648 1 3.9926927 -11.1748073 7.3155
649 2 0.0 -12.134 10.97325
650 2 0.0 -12.134 13.41175
651 2 3.0335 -9.1005 13.41175
652 2 3.0335 -9.1005 10.97325
653 1 0.9591927 -8.1413073 9.754
654 1 2.0743073 -11.1748073 9.754
655 1 5.1078073 -10.0596927 9.754
656 1 3.9926927 -7.0261927 9.754
657 1 0.9591927 -10.0596927 12.1925
658 1 2.0743073 -7.0261927 12.1925
659 1 5.1078073 -8.1413073 12.1925
660 1 3.9926927 -11.1748073 12.1925
661 2 0.0 -6.067 -8.53475
662 2 0.0 -6.067 -6.09625
663 2 3.0335 -3.0335 -6.09625
664 2 3.0335 -3.0335 -8.53475
665 1 0.9591927 -2.0743073 -9.754
666 1 2.0743073 -5.1078073 -9.754
667 1 5.1078073 -3.9926927 -9.754
668 1 3.9926927 -0.9591927 -9.754
669 1 0.9591927 -3.9926927 -7.3155
670 1 2.0743073 -0.9591927 -7.3155
671 1 5.1078073 -2.0743073 -7.3155
672 1 3.9926927 -5.1078073 -7.3155
673 2 0.0 -6.067 -3.65775
674 2 0.0 -6.067 -1.21925
675 2 3.0335 -3.0335 -1.21925
676 2 3.0335 -3.0335 -3.65775
677 1 0.9591927 -2.0743073 -4.877
678 1 2.0743073 -5.1078073 -4.877
679 1 5.1078073 -3.9926927 -4.877
680 1 3.9926927 -0.9591927 -4.877
681 1 0.9591927 -3.9926927 -2.4385
682 1 2.0743073 -0.9591927 -2.4385
683 1 5.1078073 -2.0743073 -2.4385
684 1 3.9926927 -5.1078073 -2.4385
685 2 0.0 -6.067 1.21925
686 2 0.0 -6.067 3.65775
687 2 3.0335 -3.0335 3.65775
688 2 3.0335 -3.0335 1.21925
689 1 0.9591927 -2.0743073 0.0
690 1 2.0743073 -5.1078073 0.0
691 1 5.1078073 -3.9926927 0.0
692 1 3.9926927 -0.9591927 0.0
693 1 0.9591927 -3.9926927 2.4385
694 1 2.0743073 -0.9591927 2.4385
695 1 5.1078073 -2.0743073 2.4385
696 1 3.9926927 -5.1078073 2.4385
697 2 0.0 -6.067 6.09625
698 2 0.0 -6.067 8.53475
699 2 3.0335 -3.0335 8.53475
700 2 3.0335 -3.0335 6.09625
701 1 0.9591927 -2.0743073 4.877
702 1 2.0743073 -5.1078073 4.877
703 1 5.1078073 -3.9926927 4.877
704 1 3.9926927 -0.9591927 4.877
705 1 0.9591927 -3.9926927 7.3155
706 1 2.0743073 -0.9591927 7.3155
707 1 5.1078073 -2.0743073 7.3155
708 1 3.9926927 -5.1078073 7.3155
709 2 0.0 -6.067 10.97325
710 2 0.0 -6.067 13.41175
711 2 3.0335 -3.0335 13.41175
712 2 3.0335 -3.0335 10.97325
713 1 0.9591927 -2.0743073 9.754
714 1 2.0743073 -5.1078073 9.754
715 1 5.1078073 -3.9926927 9.754
716 1 3.9926927 -0.9591927 9.754
717 1 0.9591927 -3.9926927 12.1925
718 1 2.0743073 -0.9591927 12.1925
719 1 5.1078073 -2.0743073 12.1925
720 1 3.9926927 -5.1078073 12.1925
721 2 0.0 0.0 -8.53475
722 2 0.0 0.0 -6.09625
723 2 3.0335 3.0335 -6.09625
724 2 3.0335 3.0335 -8.53475
725 1 0.9591927 3.9926927 -9.754
726 1 2.0743073 0.9591927 -9.754
727 1 5.1078073 2.0743073 -9.754
728 1 3.9926927 5.1078073 -9.754
729 1 0.9591927 2.0743073 -7.3155
730 1 2.0743073 5.1078073 -7.3155
731 1 5.1078073 3.9926927 -7.3155
732 1 3.9926927 0.9591927 -7.3155
733 2 0.0 0.0 -3.65775
734 2 0.0 0.0 -1.21925
735 2 3.0335 3.0335 -1.21925
736 2 3.0335 3.0335 -3.65775
737 1 0.9591927 3.9926927 -4.877
738 1 2.0743073 0.9591927 -4.877
739 1 5.1078073 2.0743073 -4.877
740 1 3.9926927 5.1078073 -4.877
741 1 0.9591927 2.0743073 -2.4385
742 1 2.0743073 5.1078073 -2.4385
743 1 5.1078073 3.9926927 -2.4385
744 1 3.9926927 0.9591927 -2.4385
745 2 0.0 0.0 1.21925
746 2 0.0 0.0 3.65775
747 2 3.0335 3.0335 3.65775
748 2 3.0335 3.0335 1.21925
749 1 0.9591927 3.9926927 0.0
750 1 2.0743073 0.9591927 0.0
751 1 5.1078073 2.0743073 0.0
752 1 3.9926927 5.1078073 0.0
753 1 0.9591927 2.0743073 2.4385
754 1 2.0743073 5.1078073 2.4385
755 1 5.1078073 3.9926927 2.4385
756 1 3.9926927 0.9591927 2.4385
757 2 0.0 0.0 6.09625
758 2 0.0 0.0 8.53475
759 2 3.0335 3.0335 8.53475
760 2 3.0335 3.0335 6.09625
761 1 0.9591927 3.9926927 4.877
762 1 2.0743073 0.9591927 4.877
763 1 5.1078073 2.0743073 4.877
764 1 3.9926927 5.1078073 4.877
765 1 0.9591927 2.0743073 7.3155
766 1 2.0743073 5.1078073 7.3155
767 1 5.1078073 3.9926927 7.3155
768 1 3.9926927 0.9591927 7.3155
769 2 0.0 0.0 10.97325
770 2 0.0 0.0 13.41175
771 2 3.0335 3.0335 13.41175
772 2 3.0335 3.0335 10.97325
773 1 0.9591927 3.9926927 9.754
774 1 2.0743073 0.9591927 9.754
775 1 5.1078073 2.0743073 9.754
776 1 3.9926927 5.1078073 9.754
777 1 0.9591927 2.0743073 12.1925
778 1 2.0743073 5.1078073 12.1925
779 1 5.1078073 3.9926927 12.1925
780 1 3.9926927 0.9591927 12.1925
781 2 0.0 6.067 -8.53475
782 2 0.0 6.067 -6.09625
783 2 3.0335 9.1005 -6.09625
784 2 3.0335 9.1005 -8.53475
785 1 0.9591927 10.0596927 -9.754
786 1 2.0743073 7.0261927 -9.754
787 1 5.1078073 8.1413073 -9.754
788 1 3.9926927 11.1748073 -9.754
789 1 0.9591927 8.1413073 -7.3155
790 1 2.0743073 11.1748073 -7.3155
791 1 5.1078073 10.0596927 -7.3155
792 1 3.9926927 7.0261927 -7.3155
793 2 0.0 6.067 -3.65775
794 2 0.0 6.067 -1.21925
795 2 3.0335 9.1005 -1.21925
796 2 3.0335 9.1005 -3.65775
797 1 0.9591927 10.0596927 -4.877
798 1 2.0743073 7.0261927 -4.877
799 1 5.1078073 8.1413073 -4.877
800 1 3.9926927 11.1748073 -4.877
801 1 0.9591927 8.1413073 -2.4385
802 1 2.0743073 11.1748073 -2.4385
803 1 5.1078073 10.0596927 -2.4385
804 1 3.9926927 7.0261927 -2.4385
805 2 0.0 6.067 1.21925
806 2 0.0 6.067 3.65775
807 2 3.0335 9.1005 3.65775
808 2 3.0335 9.1005 1.21925
809 1 0.9591927 10.0596927 0.0
810 1 2.0743073 7.0261927 0.0
811 1 5.1078073 8.1413073 0.0
812 1 3.9926927 11.1748073 0.0
813 1 0.9591927 8.1413073 2.4385
814 1 2.0743073 11.1748073 2.4385
815 1 5.1078073 10.0596927 2.4385
816 1 3.9926927 7.0261927 2.4385
817 2 0.0 6.067 6.09625
818 2 0.0 6.067 8.53475
819 2 3.0335 9.1005 8.53475
820 2 3.0335 9.1005 6.09625
821 1 0.9591927 10.0596927 4.877
822 1 2.0743073 7.0261927 4.877
823 1 5.1078073 8.1413073 4.877
824 1 3.9926927 11.1748073 4.877
825 1 0.9591927 8.1413073 7.3155
826 1 2.0743073 11.1748073 7.3155
827 1 5.1078073 10.0596927 7.3155
828 1 3.9926927 7.0261927 7.3155
829 2 0.0 6.067 10.97325
830 2 0.0 6.067 13.41175
831 2 3.0335 9.1005 13.41175
832 2 3.0335 9.1005 10.97325
833 1 0.9591927 10.0596927 9.754
834 1 2.0743073 7.0261927 9.754
835 1 5.1078073 8.1413073 9.754
836 1 3.9926927 11.1748073 9.754
837 1 0.9591927 8.1413073 12.1925
838 1 2.0743073 11.1748073 12.1925
839 1 5.1078073 10.0596927 12.1925
840 1 3.9926927 7.0261927 12.1925
841 2 0.0 12.134 -8.53475
842 2 0.0 12.134 -6.09625
843 2 3.0335 15.1675 -6.09625
844 2 3.0335 15.1675 -8.53475
845 1 0.9591927 16.1266927 -9.754
846 1 2.0743073 13.0931927 -9.754
847 1 5.1078073 14.2083073 -9.754
848 1 3.9926927 17.2418073 -9.754
849 1 0.9591927 14.2083073 -7.3155
850 1 2.0743073 17.2418073 -7.3155
851 1 5.1078073 16.1266927 -7.3155
852 1 3.9926927 13.0931927 -7.3155
853 2 0.0 12.134 -3.65775
854 2 0.0 12.134 -1.21925
855 2 3.0335 15.1675 -1.21925
856 2 3.0335 15.1675 -3.65775
857 1 0.9591927 16.1266927 -4.877
858 1 2.0743073 13.0931927 -4.877
859 1 5.1078073 14.2083073 -4.877
860 1 3.9926927 17.2418073 -4.877
861 1 0.9591927 14.2083073 -2.4385
862 1 2.0743073 17.2418073 -2.4385
863 1 5.1078073 16.1266927 -2.4385
864 1 3.9926927 13.0931927 -2.4385
865 2 0.0 12.134 1.21925
866 2 0.0 12.134 3.65775
867 2 3.0335 15.1675 3.65775
868 2 3.0335 15.1675 1.21925
869 1 0.9591927 16.1266927 0.0
870 1 2.0743073 13.0931927 0.0
871 1 5.1078073 14.2083073 0.0
872 1 3.9926927 17.2418073 0.0
873 1 0.9591927 14.2083073 2.4385
874 1 2.0743073 17.2418073 2.4385
875 1 5.1078073 16.1266927 2.4385
876 1 3.9926927 13.0931927 2.4385
877 2 0.0 12.134 6.09625
878 2 0.0 12.134 8.53475
879 2 3.0335 15.1675 8.53475
880 2 3.0335 15.1675 6.09625
881 1 0.9591927 16.1266927 4.877
882 1 2.0743073 13.0931927 4.877
883 1 5.1078073 14.2083073 4.877
884 1 3.9926927 17.2418073 4.877
885 1 0.9591927 14.2083073 7.3155
886 1 2.0743073 17.2418073 7.3155
887 1 5.1078073 16.1266927 7.3155
888 1 3.9926927 13.0931927 7.3155
889 2 0.0 12.134 10.97325
890 2 0.0 12.134 13.41175
891 2 3.0335 15.1675 13.41175
892 2 3.0335 15.1675 10.97325
893 1 0.9591927 16.1266927 9.754
894 1 2.0743073 13.0931927 9.754
895 1 5.1078073 14.2083073 9.754
896 1 3.9926927 17.2418073 9.754
897 1 0.9591927 14.2083073 12.1925
898 1 2.0743073 17.2418073 12.1925
899 1 5.1078073 16.1266927 12.1925
900 1 3.9926927 13.0931927 12.1925
901 2 6.067 -12.134 -8.53475
902 2 6.067 -12.134 -6.09625
903 2 9.1005 -9.1005 -6.09625
904 2 9.1005 -9.1005 -8.53475
905 1 7.0261927 -8.1413073 -9.754
906 1 8.1413073 -11.1748073 -9.754
907 1 11.1748073 -10.0596927 -9.754
908 1 10.0596927 -7.0261927 -9.754
909 1 7.0261927 -10.0596927 -7.3155
910 1 8.1413073 -7.0261927 -7.3155
911 1 11.1748073 -8.1413073 -7.3155
912 1 10.0596927 -11.1748073 -7.3155
913 2 6.067 -12.134 -3.65775
914 2 6.067 -12.134 -1.21925
915 2 9.1005 -9.1005 -1.21925
916 2 9.1005 -9.1005 -3.65775
917 1 7.0261927 -8.1413073 -4.877
918 1 8.1413073 -11.1748073 -4.877
919 1 11.1748073 -10.0596927 -4.877